 Entering Gaussian System, Link 0=g16
 Input=../c=cc[ch]c=o_+_h2o2abs.com
 Output=../c=cc[ch]c=o_+_h2o2abs.log
 Initial command:
 /shared/centos7/gaussian/g16/l1.exe "/scratch/dinius.ab/QMscratch/Gau-515.inp" -scrdir="/scratch/dinius.ab/QMscratch/"
 Entering Link 1 = /shared/centos7/gaussian/g16/l1.exe PID=       517.
  
 Copyright (c) 1988,1990,1992,1993,1995,1998,2003,2009,2016,
            Gaussian, Inc.  All Rights Reserved.
  
 This is part of the Gaussian(R) 16 program.  It is based on
 the Gaussian(R) 09 system (copyright 2009, Gaussian, Inc.),
 the Gaussian(R) 03 system (copyright 2003, Gaussian, Inc.),
 the Gaussian(R) 98 system (copyright 1998, Gaussian, Inc.),
 the Gaussian(R) 94 system (copyright 1995, Gaussian, Inc.),
 the Gaussian 92(TM) system (copyright 1992, Gaussian, Inc.),
 the Gaussian 90(TM) system (copyright 1990, Gaussian, Inc.),
 the Gaussian 88(TM) system (copyright 1988, Gaussian, Inc.),
 the Gaussian 86(TM) system (copyright 1986, Carnegie Mellon
 University), and the Gaussian 82(TM) system (copyright 1983,
 Carnegie Mellon University). Gaussian is a federally registered
 trademark of Gaussian, Inc.
  
 This software contains proprietary and confidential information,
 including trade secrets, belonging to Gaussian, Inc.
  
 This software is provided under written license and may be
 used, copied, transmitted, or stored only in accord with that
 written license.
  
 The following legend is applicable only to US Government
 contracts under FAR:
  
                    RESTRICTED RIGHTS LEGEND
  
 Use, reproduction and disclosure by the US Government is
 subject to restrictions as set forth in subparagraphs (a)
 and (c) of the Commercial Computer Software - Restricted
 Rights clause in FAR 52.227-19.
  
 Gaussian, Inc.
 340 Quinnipiac St., Bldg. 40, Wallingford CT 06492
  
  
 ---------------------------------------------------------------
 Warning -- This program may not be used in any manner that
 competes with the business of Gaussian, Inc. or will provide
 assistance to any competitor of Gaussian, Inc.  The licensee
 of this program is prohibited from giving any competitor of
 Gaussian, Inc. access to this program.  By using this program,
 the user acknowledges that Gaussian, Inc. is engaged in the
 business of creating and licensing software in the field of
 computational chemistry and represents and warrants to the
 licensee that it is not a competitor of Gaussian, Inc. and that
 it will not use this program in any manner prohibited above.
 ---------------------------------------------------------------
  

 Cite this work as:
 Gaussian 16, Revision A.03,
 M. J. Frisch, G. W. Trucks, H. B. Schlegel, G. E. Scuseria, 
 M. A. Robb, J. R. Cheeseman, G. Scalmani, V. Barone, 
 G. A. Petersson, H. Nakatsuji, X. Li, M. Caricato, A. V. Marenich, 
 J. Bloino, B. G. Janesko, R. Gomperts, B. Mennucci, H. P. Hratchian, 
 J. V. Ortiz, A. F. Izmaylov, J. L. Sonnenberg, D. Williams-Young, 
 F. Ding, F. Lipparini, F. Egidi, J. Goings, B. Peng, A. Petrone, 
 T. Henderson, D. Ranasinghe, V. G. Zakrzewski, J. Gao, N. Rega, 
 G. Zheng, W. Liang, M. Hada, M. Ehara, K. Toyota, R. Fukuda, 
 J. Hasegawa, M. Ishida, T. Nakajima, Y. Honda, O. Kitao, H. Nakai, 
 T. Vreven, K. Throssell, J. A. Montgomery, Jr., J. E. Peralta, 
 F. Ogliaro, M. J. Bearpark, J. J. Heyd, E. N. Brothers, K. N. Kudin, 
 V. N. Staroverov, T. A. Keith, R. Kobayashi, J. Normand, 
 K. Raghavachari, A. P. Rendell, J. C. Burant, S. S. Iyengar, 
 J. Tomasi, M. Cossi, J. M. Millam, M. Klene, C. Adamo, R. Cammi, 
 J. W. Ochterski, R. L. Martin, K. Morokuma, O. Farkas, 
 J. B. Foresman, and D. J. Fox, Gaussian, Inc., Wallingford CT, 2016.
 
 ******************************************
 Gaussian 16:  EM64L-G16RevA.03 25-Dec-2016
                15-Oct-2018 
 ******************************************
 ---------------------
 #n B3LYP/6-31G(d) Opt
 ---------------------
 1/18=20,19=15,26=3,38=1/1,3;
 2/9=110,12=2,17=6,18=5,40=1/2;
 3/5=1,6=6,7=1,11=2,25=1,30=1,71=1,74=-5/1,2,3;
 4//1;
 5/5=2,38=5/2;
 6/7=2,8=2,9=2,10=2,28=1/1;
 7//1,2,3,16;
 1/18=20,19=15,26=3/3(2);
 2/9=110/2;
 99//99;
 2/9=110/2;
 3/5=1,6=6,7=1,11=2,25=1,30=1,71=1,74=-5/1,2,3;
 4/5=5,16=3,69=1/1;
 5/5=2,38=5/2;
 7//1,2,3,16;
 1/18=20,19=15,26=3/3(-5);
 2/9=110/2;
 6/7=2,8=2,9=2,10=2,19=2,28=1/1;
 99/9=1/99;
 -----
 Title
 -----
 Symbolic Z-matrix:
 Charge =  0 Multiplicity = 2
 C                    -9.58021   1.34459   0.60184 
 C                    -8.44783   1.19635   1.57652 
 C                    -7.13545   1.00819   0.85764 
 C                    -6.03185   1.77239   0.87486 
 C                    -10.3345   2.44494   0.48087 
 O                    -5.05758   2.67969   1.04673 
 H                    -10.16253   3.32637   1.09094 
 H                    -11.14309   2.48669  -0.24266 
 H                    -9.79793   0.48855  -0.0339 
 H                    -8.41713   2.04998   2.26401 
 H                    -8.63395   0.31123   2.19643 
 H                    -7.08292   0.10861   0.2445 
 H                    -6.51345   2.51667   1.57342 
 H                    -4.29094   2.42788   0.48774 
 O                    -3.43792   2.9221    0.55705 
 O                    -2.27941   2.03782   0.72083 
 H                    -2.05159   2.31705   1.6287 
 

 GradGradGradGradGradGradGradGradGradGradGradGradGradGradGradGradGradGrad
 Berny optimization.
 Initialization pass.
                           ----------------------------
                           !    Initial Parameters    !
                           ! (Angstroms and Degrees)  !
 --------------------------                            --------------------------
 ! Name  Definition              Value          Derivative Info.                !
 --------------------------------------------------------------------------------
 ! R1    R(1,2)                  1.5014         estimate D2E/DX2                !
 ! R2    R(1,5)                  1.3395         estimate D2E/DX2                !
 ! R3    R(1,9)                  1.0883         estimate D2E/DX2                !
 ! R4    R(2,3)                  1.5082         estimate D2E/DX2                !
 ! R5    R(2,10)                 1.0965         estimate D2E/DX2                !
 ! R6    R(2,11)                 1.0965         estimate D2E/DX2                !
 ! R7    R(3,4)                  1.3425         estimate D2E/DX2                !
 ! R8    R(3,12)                 1.0899         estimate D2E/DX2                !
 ! R9    R(4,6)                  1.3424         estimate D2E/DX2                !
 ! R10   R(4,13)                 1.1287         estimate D2E/DX2                !
 ! R11   R(5,7)                  1.0857         estimate D2E/DX2                !
 ! R12   R(5,8)                  1.0858         estimate D2E/DX2                !
 ! R13   R(6,14)                 0.9816         estimate D2E/DX2                !
 ! R14   R(14,15)                0.9883         estimate D2E/DX2                !
 ! R15   R(15,16)                1.4666         estimate D2E/DX2                !
 ! R16   R(16,17)                0.9768         estimate D2E/DX2                !
 ! A1    A(2,1,5)              124.3621         estimate D2E/DX2                !
 ! A2    A(2,1,9)              116.9007         estimate D2E/DX2                !
 ! A3    A(5,1,9)              118.7333         estimate D2E/DX2                !
 ! A4    A(1,2,3)              111.0501         estimate D2E/DX2                !
 ! A5    A(1,2,10)             110.5656         estimate D2E/DX2                !
 ! A6    A(1,2,11)             108.5834         estimate D2E/DX2                !
 ! A7    A(3,2,10)             111.8162         estimate D2E/DX2                !
 ! A8    A(3,2,11)             108.4496         estimate D2E/DX2                !
 ! A9    A(10,2,11)            106.1832         estimate D2E/DX2                !
 ! A10   A(2,3,4)              129.659          estimate D2E/DX2                !
 ! A11   A(2,3,12)             114.3971         estimate D2E/DX2                !
 ! A12   A(4,3,12)             115.9399         estimate D2E/DX2                !
 ! A13   A(3,4,13)              91.8651         estimate D2E/DX2                !
 ! A14   A(6,4,13)              77.5691         estimate D2E/DX2                !
 ! A15   A(1,5,7)              121.8008         estimate D2E/DX2                !
 ! A16   A(1,5,8)              120.7356         estimate D2E/DX2                !
 ! A17   A(7,5,8)              117.4626         estimate D2E/DX2                !
 ! A18   A(4,6,14)             108.6953         estimate D2E/DX2                !
 ! A19   A(6,14,15)            120.3894         estimate D2E/DX2                !
 ! A20   A(14,15,16)           112.8379         estimate D2E/DX2                !
 ! A21   A(15,16,17)            96.6424         estimate D2E/DX2                !
 ! A22   L(3,4,6,13,-1)        169.4342         estimate D2E/DX2                !
 ! A23   L(3,4,6,13,-2)        179.8541         estimate D2E/DX2                !
 ! D1    D(5,1,2,3)           -116.7461         estimate D2E/DX2                !
 ! D2    D(5,1,2,10)             7.9838         estimate D2E/DX2                !
 ! D3    D(5,1,2,11)           124.1004         estimate D2E/DX2                !
 ! D4    D(9,1,2,3)             63.9876         estimate D2E/DX2                !
 ! D5    D(9,1,2,10)          -171.2825         estimate D2E/DX2                !
 ! D6    D(9,1,2,11)           -55.1659         estimate D2E/DX2                !
 ! D7    D(2,1,5,7)              0.6242         estimate D2E/DX2                !
 ! D8    D(2,1,5,8)           -179.7374         estimate D2E/DX2                !
 ! D9    D(9,1,5,7)            179.8781         estimate D2E/DX2                !
 ! D10   D(9,1,5,8)             -0.4836         estimate D2E/DX2                !
 ! D11   D(1,2,3,4)            118.5057         estimate D2E/DX2                !
 ! D12   D(1,2,3,12)           -62.2518         estimate D2E/DX2                !
 ! D13   D(10,2,3,4)            -5.5154         estimate D2E/DX2                !
 ! D14   D(10,2,3,12)          173.7271         estimate D2E/DX2                !
 ! D15   D(11,2,3,4)          -122.2605         estimate D2E/DX2                !
 ! D16   D(11,2,3,12)           56.982          estimate D2E/DX2                !
 ! D17   D(2,3,4,13)            -0.8034         estimate D2E/DX2                !
 ! D18   D(12,3,4,13)          179.9637         estimate D2E/DX2                !
 ! D19   D(2,3,6,14)          -177.8453         estimate D2E/DX2                !
 ! D20   D(12,3,6,14)            2.9582         estimate D2E/DX2                !
 ! D21   D(13,4,6,14)         -177.1026         estimate D2E/DX2                !
 ! D22   D(4,6,14,15)         -173.1643         estimate D2E/DX2                !
 ! D23   D(6,14,15,16)         130.0607         estimate D2E/DX2                !
 ! D24   D(14,15,16,17)       -113.4684         estimate D2E/DX2                !
 --------------------------------------------------------------------------------
 Trust Radius=3.00D-01 FncErr=1.00D-07 GrdErr=1.00D-06 EigMax=2.50D+02 EigMin=1.00D-04
 Number of steps in this run=     73 maximum allowed number of steps=    102.
 GradGradGradGradGradGradGradGradGradGradGradGradGradGradGradGradGradGrad

                          Input orientation:                          
 ---------------------------------------------------------------------
 Center     Atomic      Atomic             Coordinates (Angstroms)
 Number     Number       Type             X           Y           Z
 ---------------------------------------------------------------------
      1          6           0       -9.580210    1.344590    0.601840
      2          6           0       -8.447830    1.196350    1.576520
      3          6           0       -7.135450    1.008190    0.857640
      4          6           0       -6.031850    1.772390    0.874860
      5          6           0      -10.334500    2.444940    0.480870
      6          8           0       -5.057580    2.679690    1.046730
      7          1           0      -10.162530    3.326370    1.090940
      8          1           0      -11.143090    2.486690   -0.242660
      9          1           0       -9.797930    0.488550   -0.033900
     10          1           0       -8.417130    2.049980    2.264010
     11          1           0       -8.633950    0.311230    2.196430
     12          1           0       -7.082920    0.108610    0.244500
     13          1           0       -6.513450    2.516670    1.573420
     14          1           0       -4.290940    2.427880    0.487740
     15          8           0       -3.437920    2.922100    0.557050
     16          8           0       -2.279410    2.037820    0.720830
     17          1           0       -2.051590    2.317050    1.628700
 ---------------------------------------------------------------------
                    Distance matrix (angstroms):
                    1          2          3          4          5
     1  C    0.000000
     2  C    1.501420   0.000000
     3  C    2.481018   1.508156   0.000000
     4  C    3.584468   2.580912   1.342472   0.000000
     5  C    1.339536   2.513752   3.527056   4.372682   0.000000
     6  O    4.736518   3.738284   2.673427   1.342362   5.312362
     7  H    2.122679   2.777223   3.819895   4.418604   1.085669
     8  H    2.111911   3.498402   4.411100   5.280516   1.085844
     9  H    1.088288   2.217477   2.855463   4.081354   2.092930
    10  H    2.147822   1.096480   2.169310   2.774230   2.647997
    11  H    2.122724   1.096525   2.126879   3.263811   3.223001
    12  H    2.809234   2.195549   1.089929   2.066462   4.010870
    13  H    3.423851   2.342025   1.781779   1.128662   3.974825
    14  H    5.400270   4.470105   3.200560   1.900078   6.043588
    15  O    6.341788   5.395992   4.174342   2.855050   6.913487
    16  O    7.334603   6.284082   4.965882   3.764968   8.068941
    17  H    7.660303   6.493888   5.305967   4.087469   8.363042
                    6          7          8          9         10
     6  O    0.000000
     7  H    5.145937   0.000000
     8  H    6.223601   1.856084   0.000000
     9  H    5.332895   3.074316   2.417767   0.000000
    10  H    3.628344   2.460017   3.728937   3.102429   0.000000
    11  H    4.440927   3.556646   4.120385   2.522036   1.753519
    12  H    3.369871   4.533700   4.730494   2.755565   3.102814
    13  H    1.556771   3.768844   4.973189   4.181454   2.078151
    14  H    0.981639   5.970486   6.891219   5.861744   4.508147
    15  O    1.709341   6.757873   7.758786   6.835285   5.335432
    16  O    2.869919   7.996307   8.927184   7.713495   6.328757
    17  H    3.083208   8.191170   9.283649   8.131017   6.402737
                   11         12         13         14         15
    11  H    0.000000
    12  H    2.501356   0.000000
    13  H    3.122279   2.808750   0.000000
    14  H    5.124604   3.637765   2.475103   0.000000
    15  O    6.041766   4.615131   3.264394   0.988282   0.000000
    16  O    6.748236   5.198312   4.345492   2.062215   1.466602
    17  H    6.904571   5.666348   4.466665   2.515703   1.853761
                   16         17
    16  O    0.000000
    17  H    0.976780   0.000000
 Stoichiometry    C5H9O3(2)
 Framework group  C1[X(C5H9O3)]
 Deg. of freedom    45
 Full point group                 C1      NOp   1
 Largest Abelian subgroup         C1      NOp   1
 Largest concise Abelian subgroup C1      NOp   1
                         Standard orientation:                         
 ---------------------------------------------------------------------
 Center     Atomic      Atomic             Coordinates (Angstroms)
 Number     Number       Type             X           Y           Z
 ---------------------------------------------------------------------
      1          6           0       -3.224935   -0.194601   -0.314138
      2          6           0       -2.117539   -0.681977    0.574906
      3          6           0       -0.833491   -0.845152   -0.199127
      4          6           0        0.348643   -0.229876   -0.037185
      5          6           0       -3.851243    0.980294   -0.166765
      6          8           0        1.418062    0.503124    0.310651
      7          1           0       -3.582564    1.676944    0.621376
      8          1           0       -4.649127    1.272481   -0.842831
      9          1           0       -3.536203   -0.855877   -1.120487
     10          1           0       -1.992456   -0.014287    1.435611
     11          1           0       -2.402325   -1.658462    0.984470
     12          1           0       -0.881105   -1.583210   -0.999720
     13          1           0       -0.047604    0.385440    0.822030
     14          1           0        2.152464    0.301854   -0.308832
     15          8           0        3.055321    0.671401   -0.150771
     16          8           0        4.107425   -0.348173   -0.217607
     17          1           0        4.363845   -0.307823    0.724051
 ---------------------------------------------------------------------
 Rotational constants (GHZ):           7.5278756           0.5523682           0.5323096
 Standard basis: 6-31G(d) (6D, 7F)
 There are   138 symmetry adapted cartesian basis functions of A   symmetry.
 There are   138 symmetry adapted basis functions of A   symmetry.
   138 basis functions,   260 primitive gaussians,   138 cartesian basis functions
    32 alpha electrons       31 beta electrons
       nuclear repulsion energy       344.1363662996 Hartrees.
 NAtoms=   17 NActive=   17 NUniq=   17 SFac= 1.00D+00 NAtFMM=   60 NAOKFM=F Big=F
 Integral buffers will be    131072 words long.
 Raffenetti 2 integral format.
 Two-electron integral symmetry is turned on.
 One-electron integrals computed using PRISM.
 NBasis=   138 RedAO= T EigKep=  1.45D-03  NBF=   138
 NBsUse=   138 1.00D-06 EigRej= -1.00D+00 NBFU=   138
 ExpMin= 1.61D-01 ExpMax= 5.48D+03 ExpMxC= 8.25D+02 IAcc=3 IRadAn=         5 AccDes= 0.00D+00
 Harris functional with IExCor=  402 and IRadAn=       5 diagonalized for initial guess.
 HarFok:  IExCor=  402 AccDes= 0.00D+00 IRadAn=         5 IDoV= 1 UseB2=F ITyADJ=14
 ICtDFT=  3500011 ScaDFX=  1.000000  1.000000  1.000000  1.000000
 FoFCou: FMM=F IPFlag=           0 FMFlag=      100000 FMFlg1=           0
         NFxFlg=           0 DoJE=T BraDBF=F KetDBF=T FulRan=T
         wScrn=  0.000000 ICntrl=       500 IOpCl=  0 I1Cent=   200000004 NGrid=           0
         NMat0=    1 NMatS0=      1 NMatT0=    0 NMatD0=    1 NMtDS0=    0 NMtDT0=    0
 Petite list used in FoFCou.
 Initial guess <Sx>= 0.0000 <Sy>= 0.0000 <Sz>= 0.5000 <S**2>= 0.7500 S= 0.5000
 Keep R1 and R2 ints in memory in canonical form, NReq=93340668.
 Requested convergence on RMS density matrix=1.00D-08 within 128 cycles.
 Requested convergence on MAX density matrix=1.00D-06.
 Requested convergence on             energy=1.00D-06.
 No special actions if energy rises.
 Integral accuracy reduced to 1.0D-05 until final iterations.
 Initial convergence to 1.0D-05 achieved.  Increase integral accuracy.
 SCF Done:  E(UB3LYP) =  -421.154383331     A.U. after   20 cycles
            NFock= 20  Conv=0.77D-08     -V/T= 2.0063
 <Sx>= 0.0000 <Sy>= 0.0000 <Sz>= 0.5000 <S**2>= 0.7552 S= 0.5026
 <L.S>= 0.000000000000E+00
 Annihilation of the first spin contaminant:
 S**2 before annihilation     0.7552,   after     0.7500

 **********************************************************************

            Population analysis using the SCF density.

 **********************************************************************

 Orbital symmetries:
 Alpha Orbitals:
       Occupied  (A) (A) (A) (A) (A) (A) (A) (A) (A) (A) (A) (A)
                 (A) (A) (A) (A) (A) (A) (A) (A) (A) (A) (A) (A)
                 (A) (A) (A) (A) (A) (A) (A) (A)
       Virtual   (A) (A) (A) (A) (A) (A) (A) (A) (A) (A) (A) (A)
                 (A) (A) (A) (A) (A) (A) (A) (A) (A) (A) (A) (A)
                 (A) (A) (A) (A) (A) (A) (A) (A) (A) (A) (A) (A)
                 (A) (A) (A) (A) (A) (A) (A) (A) (A) (A) (A) (A)
                 (A) (A) (A) (A) (A) (A) (A) (A) (A) (A) (A) (A)
                 (A) (A) (A) (A) (A) (A) (A) (A) (A) (A) (A) (A)
                 (A) (A) (A) (A) (A) (A) (A) (A) (A) (A) (A) (A)
                 (A) (A) (A) (A) (A) (A) (A) (A) (A) (A) (A) (A)
                 (A) (A) (A) (A) (A) (A) (A) (A) (A) (A)
 Beta  Orbitals:
       Occupied  (A) (A) (A) (A) (A) (A) (A) (A) (A) (A) (A) (A)
                 (A) (A) (A) (A) (A) (A) (A) (A) (A) (A) (A) (A)
                 (A) (A) (A) (A) (A) (A) (A)
       Virtual   (A) (A) (A) (A) (A) (A) (A) (A) (A) (A) (A) (A)
                 (A) (A) (A) (A) (A) (A) (A) (A) (A) (A) (A) (A)
                 (A) (A) (A) (A) (A) (A) (A) (A) (A) (A) (A) (A)
                 (A) (A) (A) (A) (A) (A) (A) (A) (A) (A) (A) (A)
                 (A) (A) (A) (A) (A) (A) (A) (A) (A) (A) (A) (A)
                 (A) (A) (A) (A) (A) (A) (A) (A) (A) (A) (A) (A)
                 (A) (A) (A) (A) (A) (A) (A) (A) (A) (A) (A) (A)
                 (A) (A) (A) (A) (A) (A) (A) (A) (A) (A) (A) (A)
                 (A) (A) (A) (A) (A) (A) (A) (A) (A) (A) (A)
 The electronic state is 2-A.
 Alpha  occ. eigenvalues --  -19.21859 -19.20892 -19.20687 -10.25684 -10.21322
 Alpha  occ. eigenvalues --  -10.20389 -10.19480 -10.18248  -1.17935  -1.08156
 Alpha  occ. eigenvalues --   -0.92089  -0.81972  -0.76388  -0.69354  -0.64614
 Alpha  occ. eigenvalues --   -0.56321  -0.52811  -0.51900  -0.48258  -0.46721
 Alpha  occ. eigenvalues --   -0.45442  -0.43914  -0.42487  -0.40750  -0.39768
 Alpha  occ. eigenvalues --   -0.37172  -0.35612  -0.32186  -0.29211  -0.26289
 Alpha  occ. eigenvalues --   -0.23948  -0.22608
 Alpha virt. eigenvalues --   -0.01017   0.01493   0.02286   0.04945   0.08314
 Alpha virt. eigenvalues --    0.11131   0.11904   0.14738   0.16466   0.17628
 Alpha virt. eigenvalues --    0.19319   0.21182   0.22560   0.28015   0.30841
 Alpha virt. eigenvalues --    0.36626   0.44478   0.50717   0.52023   0.53918
 Alpha virt. eigenvalues --    0.55792   0.57268   0.59389   0.62434   0.63494
 Alpha virt. eigenvalues --    0.64068   0.67998   0.70621   0.71597   0.75101
 Alpha virt. eigenvalues --    0.76810   0.77395   0.80829   0.81776   0.82581
 Alpha virt. eigenvalues --    0.83303   0.85529   0.86889   0.87488   0.89133
 Alpha virt. eigenvalues --    0.90623   0.92553   0.93278   0.96335   0.98419
 Alpha virt. eigenvalues --    1.01288   1.04375   1.08525   1.08855   1.11551
 Alpha virt. eigenvalues --    1.18674   1.22247   1.26792   1.28407   1.32345
 Alpha virt. eigenvalues --    1.37957   1.39960   1.43461   1.48693   1.49866
 Alpha virt. eigenvalues --    1.50790   1.52447   1.57904   1.63313   1.67797
 Alpha virt. eigenvalues --    1.70522   1.73188   1.78067   1.80922   1.85581
 Alpha virt. eigenvalues --    1.89639   1.90680   1.92628   1.93763   1.97656
 Alpha virt. eigenvalues --    1.98649   2.01791   2.05870   2.16065   2.17620
 Alpha virt. eigenvalues --    2.22221   2.25367   2.26067   2.27325   2.37512
 Alpha virt. eigenvalues --    2.38661   2.47578   2.49938   2.50759   2.58683
 Alpha virt. eigenvalues --    2.69323   2.73377   2.77683   2.84142   2.90347
 Alpha virt. eigenvalues --    2.98691   3.04249   3.22777   3.50717   3.77555
 Alpha virt. eigenvalues --    4.09094   4.11205   4.17055   4.33093   4.47113
 Alpha virt. eigenvalues --    4.58104
  Beta  occ. eigenvalues --  -19.21552 -19.19812 -19.19429 -10.25410 -10.21373
  Beta  occ. eigenvalues --  -10.20337 -10.19485 -10.18245  -1.15423  -1.06600
  Beta  occ. eigenvalues --   -0.90047  -0.81719  -0.75968  -0.68603  -0.62952
  Beta  occ. eigenvalues --   -0.56251  -0.52172  -0.50588  -0.47344  -0.46498
  Beta  occ. eigenvalues --   -0.44001  -0.43001  -0.41959  -0.40000  -0.37929
  Beta  occ. eigenvalues --   -0.36016  -0.35456  -0.31032  -0.26387  -0.25861
  Beta  occ. eigenvalues --   -0.23497
  Beta virt. eigenvalues --   -0.11440  -0.00051   0.01990   0.03291   0.05343
  Beta virt. eigenvalues --    0.08607   0.11178   0.11994   0.14843   0.16546
  Beta virt. eigenvalues --    0.17711   0.19422   0.21635   0.23148   0.28134
  Beta virt. eigenvalues --    0.31032   0.36643   0.44707   0.50833   0.52252
  Beta virt. eigenvalues --    0.53983   0.56089   0.57481   0.59645   0.62518
  Beta virt. eigenvalues --    0.63842   0.64221   0.68025   0.71113   0.71934
  Beta virt. eigenvalues --    0.75800   0.77052   0.78022   0.81118   0.82678
  Beta virt. eigenvalues --    0.83167   0.83794   0.85603   0.87534   0.87837
  Beta virt. eigenvalues --    0.89595   0.90721   0.92887   0.93578   0.96473
  Beta virt. eigenvalues --    0.98826   1.02657   1.04864   1.09163   1.09469
  Beta virt. eigenvalues --    1.11672   1.19883   1.22429   1.27963   1.29427
  Beta virt. eigenvalues --    1.32875   1.38184   1.40842   1.43927   1.48856
  Beta virt. eigenvalues --    1.50424   1.51126   1.53078   1.58714   1.64036
  Beta virt. eigenvalues --    1.68705   1.71140   1.73635   1.78526   1.81893
  Beta virt. eigenvalues --    1.86158   1.89898   1.91129   1.93420   1.93961
  Beta virt. eigenvalues --    1.97975   1.99458   2.02518   2.06299   2.16535
  Beta virt. eigenvalues --    2.17810   2.22649   2.25634   2.26815   2.28538
  Beta virt. eigenvalues --    2.37757   2.38782   2.47942   2.50151   2.51211
  Beta virt. eigenvalues --    2.59236   2.69546   2.73837   2.77819   2.84734
  Beta virt. eigenvalues --    2.90710   2.99813   3.05163   3.23677   3.51272
  Beta virt. eigenvalues --    3.78933   4.09364   4.11980   4.17215   4.33202
  Beta virt. eigenvalues --    4.47231   4.58582
          Condensed to atoms (all electrons):
               1          2          3          4          5          6
     1  C    4.795705   0.381563  -0.057044  -0.000680   0.687095  -0.000014
     2  C    0.381563   5.091207   0.380254  -0.037364  -0.034188   0.001534
     3  C   -0.057044   0.380254   5.156531   0.611554  -0.001094  -0.058168
     4  C   -0.000680  -0.037364   0.611554   4.818761   0.000209   0.182320
     5  C    0.687095  -0.034188  -0.001094   0.000209   4.990050  -0.000004
     6  O   -0.000014   0.001534  -0.058168   0.182320  -0.000004   8.667658
     7  H   -0.036139  -0.012174   0.000292   0.000039   0.370744  -0.000000
     8  H   -0.026668   0.005051  -0.000184  -0.000011   0.368007   0.000000
     9  H    0.369660  -0.056006  -0.001082   0.000025  -0.044099   0.000000
    10  H   -0.034069   0.352763  -0.036715  -0.006579  -0.006242  -0.000226
    11  H   -0.041932   0.364343  -0.042802   0.000402   0.001647  -0.000024
    12  H   -0.000165  -0.069754   0.318443  -0.034364   0.000160   0.000404
    13  H    0.001011  -0.041578  -0.101672   0.292636   0.000314  -0.064151
    14  H    0.000001   0.000004  -0.004601  -0.012750   0.000000   0.125974
    15  O    0.000000  -0.000004   0.000504   0.032119   0.000000  -0.339085
    16  O    0.000000   0.000000   0.000038  -0.000550   0.000000   0.010088
    17  H   -0.000000   0.000000   0.000002   0.000124  -0.000000  -0.000816
               7          8          9         10         11         12
     1  C   -0.036139  -0.026668   0.369660  -0.034069  -0.041932  -0.000165
     2  C   -0.012174   0.005051  -0.056006   0.352763   0.364343  -0.069754
     3  C    0.000292  -0.000184  -0.001082  -0.036715  -0.042802   0.318443
     4  C    0.000039  -0.000011   0.000025  -0.006579   0.000402  -0.034364
     5  C    0.370744   0.368007  -0.044099  -0.006242   0.001647   0.000160
     6  O   -0.000000   0.000000   0.000000  -0.000226  -0.000024   0.000404
     7  H    0.568747  -0.041885   0.005904   0.006402   0.000176   0.000010
     8  H   -0.041885   0.561834  -0.008212   0.000090  -0.000232   0.000013
     9  H    0.005904  -0.008212   0.595756   0.004887  -0.002102   0.002533
    10  H    0.006402   0.000090   0.004887   0.583011  -0.031854   0.005472
    11  H    0.000176  -0.000232  -0.002102  -0.031854   0.589170  -0.000995
    12  H    0.000010   0.000013   0.002533   0.005472  -0.000995   0.640457
    13  H    0.000008   0.000006   0.000043   0.017305   0.001016   0.014931
    14  H    0.000000  -0.000000   0.000000  -0.000001  -0.000001   0.000186
    15  O   -0.000000   0.000000  -0.000000   0.000001   0.000000   0.000024
    16  O   -0.000000   0.000000  -0.000000  -0.000000  -0.000000  -0.000002
    17  H    0.000000  -0.000000   0.000000  -0.000000   0.000000  -0.000001
              13         14         15         16         17
     1  C    0.001011   0.000001   0.000000   0.000000  -0.000000
     2  C   -0.041578   0.000004  -0.000004   0.000000   0.000000
     3  C   -0.101672  -0.004601   0.000504   0.000038   0.000002
     4  C    0.292636  -0.012750   0.032119  -0.000550   0.000124
     5  C    0.000314   0.000000   0.000000   0.000000  -0.000000
     6  O   -0.064151   0.125974  -0.339085   0.010088  -0.000816
     7  H    0.000008   0.000000  -0.000000  -0.000000   0.000000
     8  H    0.000006  -0.000000   0.000000   0.000000  -0.000000
     9  H    0.000043   0.000000  -0.000000  -0.000000   0.000000
    10  H    0.017305  -0.000001   0.000001  -0.000000  -0.000000
    11  H    0.001016  -0.000001   0.000000  -0.000000   0.000000
    12  H    0.014931   0.000186   0.000024  -0.000002  -0.000001
    13  H    0.683360   0.003595   0.001154  -0.000018  -0.000031
    14  H    0.003595   0.325947   0.075499   0.005496   0.000785
    15  O    0.001154   0.075499   8.517310   0.044340  -0.019387
    16  O   -0.000018   0.005496   0.044340   8.116064   0.218105
    17  H   -0.000031   0.000785  -0.019387   0.218105   0.379252
          Atomic-Atomic Spin Densities.
               1          2          3          4          5          6
     1  C   -0.003271  -0.001205   0.000825   0.000141  -0.000229  -0.000005
     2  C   -0.001205   0.053714   0.008898  -0.011285  -0.000621   0.000728
     3  C    0.000825   0.008898  -0.029829   0.008993   0.000207  -0.000092
     4  C    0.000141  -0.011285   0.008993   0.192449   0.000087  -0.074889
     5  C   -0.000229  -0.000621   0.000207   0.000087   0.003014  -0.000002
     6  O   -0.000005   0.000728  -0.000092  -0.074889  -0.000002   0.528855
     7  H    0.000066   0.000033  -0.000014  -0.000003  -0.000050   0.000000
     8  H   -0.000057  -0.000009   0.000008   0.000000   0.000094  -0.000000
     9  H    0.000198   0.000152  -0.000093  -0.000009  -0.000106   0.000000
    10  H    0.000204  -0.002970  -0.000148   0.000886   0.000057  -0.000129
    11  H    0.000578  -0.007321  -0.000035   0.000833   0.000028  -0.000019
    12  H    0.000357  -0.010434  -0.007349  -0.003468   0.000080   0.000284
    13  H    0.000163  -0.012254  -0.010880   0.020451   0.000108  -0.031960
    14  H    0.000001  -0.000052  -0.000757  -0.010307   0.000000   0.031429
    15  O   -0.000000   0.000012   0.000808   0.024580  -0.000000  -0.154103
    16  O    0.000000  -0.000000  -0.000042  -0.001927   0.000000   0.010110
    17  H   -0.000000   0.000000   0.000001   0.000032  -0.000000  -0.000183
               7          8          9         10         11         12
     1  C    0.000066  -0.000057   0.000198   0.000204   0.000578   0.000357
     2  C    0.000033  -0.000009   0.000152  -0.002970  -0.007321  -0.010434
     3  C   -0.000014   0.000008  -0.000093  -0.000148  -0.000035  -0.007349
     4  C   -0.000003   0.000000  -0.000009   0.000886   0.000833  -0.003468
     5  C   -0.000050   0.000094  -0.000106   0.000057   0.000028   0.000080
     6  O    0.000000  -0.000000   0.000000  -0.000129  -0.000019   0.000284
     7  H   -0.000139   0.000024  -0.000002  -0.000027  -0.000006  -0.000001
     8  H    0.000024  -0.000261   0.000005   0.000002   0.000003   0.000001
     9  H   -0.000002   0.000005   0.000124  -0.000020  -0.000069  -0.000081
    10  H   -0.000027   0.000002  -0.000020  -0.000889   0.000966   0.000237
    11  H   -0.000006   0.000003  -0.000069   0.000966   0.006097   0.001601
    12  H   -0.000001   0.000001  -0.000081   0.000237   0.001601   0.039090
    13  H   -0.000008   0.000001  -0.000005   0.001706   0.000775   0.002790
    14  H   -0.000000   0.000000  -0.000000   0.000005   0.000002   0.000159
    15  O    0.000000  -0.000000   0.000000  -0.000001  -0.000000  -0.000074
    16  O   -0.000000   0.000000  -0.000000   0.000000   0.000000   0.000005
    17  H    0.000000   0.000000   0.000000  -0.000000  -0.000000  -0.000000
              13         14         15         16         17
     1  C    0.000163   0.000001  -0.000000   0.000000  -0.000000
     2  C   -0.012254  -0.000052   0.000012  -0.000000   0.000000
     3  C   -0.010880  -0.000757   0.000808  -0.000042   0.000001
     4  C    0.020451  -0.010307   0.024580  -0.001927   0.000032
     5  C    0.000108   0.000000  -0.000000   0.000000  -0.000000
     6  O   -0.031960   0.031429  -0.154103   0.010110  -0.000183
     7  H   -0.000008  -0.000000   0.000000  -0.000000   0.000000
     8  H    0.000001   0.000000  -0.000000   0.000000   0.000000
     9  H   -0.000005  -0.000000   0.000000  -0.000000   0.000000
    10  H    0.001706   0.000005  -0.000001   0.000000  -0.000000
    11  H    0.000775   0.000002  -0.000000   0.000000  -0.000000
    12  H    0.002790   0.000159  -0.000074   0.000005  -0.000000
    13  H    0.089086   0.002176  -0.004225   0.000131  -0.000004
    14  H    0.002176  -0.017518  -0.037335   0.005365  -0.000023
    15  O   -0.004225  -0.037335   0.626031  -0.055708   0.000434
    16  O    0.000131   0.005365  -0.055708   0.143475  -0.000379
    17  H   -0.000004  -0.000023   0.000434  -0.000379  -0.003718
 Mulliken charges and spin densities:
               1          2
     1  C   -0.038324  -0.002235
     2  C   -0.325653   0.017384
     3  C   -0.164258  -0.029498
     4  C    0.154108   0.146564
     5  C   -0.332599   0.002665
     6  O   -0.525490   0.310024
     7  H    0.137876  -0.000127
     8  H    0.142192  -0.000190
     9  H    0.132693   0.000096
    10  H    0.145755  -0.000122
    11  H    0.163188   0.003433
    12  H    0.122648   0.023198
    13  H    0.192070   0.058053
    14  H    0.479865  -0.026856
    15  O   -0.312475   0.400420
    16  O   -0.393560   0.101030
    17  H    0.421965  -0.003839
 Sum of Mulliken charges =  -0.00000   1.00000
 Mulliken charges and spin densities with hydrogens summed into heavy atoms:
               1          2
     1  C    0.094368  -0.002139
     2  C   -0.016710   0.020695
     3  C   -0.041610  -0.006300
     4  C    0.346178   0.204617
     5  C   -0.052532   0.002348
     6  O   -0.045625   0.283167
    15  O   -0.312475   0.400420
    16  O    0.028405   0.097192
 Electronic spatial extent (au):  <R**2>=           2007.9980
 Charge=             -0.0000 electrons
 Dipole moment (field-independent basis, Debye):
    X=             -1.0645    Y=             -1.0593    Z=              1.4157  Tot=              2.0639
 Quadrupole moment (field-independent basis, Debye-Ang):
   XX=            -46.7276   YY=            -48.4089   ZZ=            -46.4442
   XY=             -2.2680   XZ=              6.6818   YZ=              0.6537
 Traceless Quadrupole moment (field-independent basis, Debye-Ang):
   XX=              0.4660   YY=             -1.2153   ZZ=              0.7494
   XY=             -2.2680   XZ=              6.6818   YZ=              0.6537
 Octapole moment (field-independent basis, Debye-Ang**2):
  XXX=             51.5646  YYY=              3.5012  ZZZ=              2.2063  XYY=              5.5794
  XXY=             -5.0099  XXZ=             24.7932  XZZ=             15.5145  YZZ=              0.2564
  YYZ=              0.7115  XYZ=             -4.2489
 Hexadecapole moment (field-independent basis, Debye-Ang**3):
 XXXX=          -2125.2483 YYYY=           -186.6443 ZZZZ=            -96.5444 XXXY=            -43.3570
 XXXZ=            188.8947 YYYX=              4.4732 YYYZ=              2.5480 ZZZX=              3.4574
 ZZZY=              2.2593 XXYY=           -392.8353 XXZZ=           -360.2357 YYZZ=            -45.5825
 XXYZ=             -8.5976 YYXZ=             -0.7705 ZZXY=              0.8969
 N-N= 3.441363662996D+02 E-N=-1.673834479793D+03  KE= 4.185098659976D+02
                          Isotropic Fermi Contact Couplings
        Atom                 a.u.       MegaHertz       Gauss      10(-4) cm-1
     1  C(13)             -0.00164      -1.84196      -0.65726      -0.61441
     2  C(13)              0.02131      23.95116       8.54637       7.98925
     3  C(13)             -0.01741     -19.57099      -6.98342      -6.52818
     4  C(13)              0.07108      79.90730      28.51291      26.65421
     5  C(13)              0.00016       0.17584       0.06274       0.05865
     6  O(17)              0.07661     -46.44020     -16.57102     -15.49078
     7  H(1)              -0.00001      -0.06325      -0.02257      -0.02110
     8  H(1)              -0.00006      -0.25469      -0.09088      -0.08496
     9  H(1)               0.00015       0.65174       0.23256       0.21740
    10  H(1)              -0.00031      -1.37287      -0.48987      -0.45794
    11  H(1)               0.00099       4.41234       1.57443       1.47180
    12  H(1)               0.01030      46.04354      16.42948      15.35847
    13  H(1)               0.03614     161.55592      57.64717      53.88925
    14  H(1)              -0.01834     -81.95703     -29.24431     -27.33792
    15  O(17)              0.15591     -94.51081     -33.72381     -31.52541
    16  O(17)              0.01546      -9.37126      -3.34390      -3.12592
    17  H(1)              -0.00191      -8.55559      -3.05285      -2.85384
 --------------------------------------------------------
       Center         ----  Spin Dipole Couplings  ----
                      3XX-RR        3YY-RR        3ZZ-RR
 --------------------------------------------------------
     1   Atom        0.001926     -0.000795     -0.001132
     2   Atom        0.025294     -0.013080     -0.012214
     3   Atom        0.004079     -0.018172      0.014093
     4   Atom        0.012631     -0.043499      0.030868
     5   Atom        0.002248     -0.002043     -0.000205
     6   Atom        0.648703     -0.375815     -0.272888
     7   Atom        0.001549     -0.000586     -0.000964
     8   Atom        0.001083     -0.000603     -0.000479
     9   Atom        0.001688     -0.000935     -0.000754
    10   Atom        0.003600     -0.003176     -0.000423
    11   Atom        0.001340      0.000634     -0.001974
    12   Atom        0.002339      0.002097     -0.004436
    13   Atom        0.006421     -0.007737      0.001316
    14   Atom        0.219272     -0.154695     -0.064577
    15   Atom        0.299088      0.391885     -0.690973
    16   Atom        0.509802     -0.320225     -0.189577
    17   Atom        0.005004     -0.018796      0.013792
 --------------------------------------------------------
                        XY            XZ            YZ
 --------------------------------------------------------
     1   Atom        0.000083      0.000886      0.001069
     2   Atom        0.009374     -0.010770     -0.001641
     3   Atom        0.008973     -0.005667      0.006231
     4   Atom       -0.055710     -0.100611      0.073380
     5   Atom        0.000138     -0.001421     -0.000657
     6   Atom       -0.798380     -0.868963      0.442086
     7   Atom       -0.000741     -0.000167      0.000173
     8   Atom       -0.000335      0.000348     -0.000133
     9   Atom        0.000296      0.000746      0.000154
    10   Atom        0.000577     -0.003968      0.001877
    11   Atom        0.002250     -0.001254     -0.001304
    12   Atom        0.003733      0.001999      0.003091
    13   Atom       -0.000421     -0.011452      0.016644
    14   Atom        0.029196     -0.070015      0.027163
    15   Atom        1.229438     -0.518589     -0.562218
    16   Atom        0.259007     -0.215766     -0.052405
    17   Atom       -0.005345      0.016296     -0.003294
 --------------------------------------------------------


 ---------------------------------------------------------------------------------
              Anisotropic Spin Dipole Couplings in Principal Axis System
 ---------------------------------------------------------------------------------

       Atom             a.u.   MegaHertz   Gauss  10(-4) cm-1        Axes

              Baa    -0.0021    -0.288    -0.103    -0.096 -0.1572 -0.6073  0.7788
     1 C(13)  Bbb    -0.0001    -0.009    -0.003    -0.003 -0.2791  0.7838  0.5548
              Bcc     0.0022     0.297     0.106     0.099  0.9473  0.1301  0.2927
 
              Baa    -0.0159    -2.138    -0.763    -0.713 -0.3249  0.7057 -0.6296
     2 C(13)  Bbb    -0.0143    -1.920    -0.685    -0.640  0.0403  0.6755  0.7363
              Bcc     0.0302     4.058     1.448     1.354  0.9449  0.2138 -0.2479
 
              Baa    -0.0230    -3.084    -1.100    -1.029 -0.3467  0.9149 -0.2068
     3 C(13)  Bbb     0.0062     0.830     0.296     0.277  0.8649  0.3971  0.3070
              Bcc     0.0168     2.253     0.804     0.752 -0.3630  0.0724  0.9290
 
              Baa    -0.0898   -12.046    -4.298    -4.018 -0.2201  0.7411 -0.6343
     4 C(13)  Bbb    -0.0737    -9.894    -3.530    -3.300  0.7644  0.5350  0.3598
              Bcc     0.1635    21.940     7.829     7.318 -0.6061  0.4057  0.6842
 
              Baa    -0.0023    -0.306    -0.109    -0.102  0.0820  0.9325  0.3518
     5 C(13)  Bbb    -0.0007    -0.088    -0.031    -0.029  0.4252 -0.3520  0.8338
              Bcc     0.0029     0.393     0.140     0.131  0.9014  0.0812 -0.4254
 
              Baa    -0.8267    59.819    21.345    19.953  0.6137  0.6560  0.4394
     6 O(17)  Bbb    -0.7672    55.513    19.808    18.517  0.1190 -0.6270  0.7699
              Bcc     1.5939  -115.331   -41.153   -38.470  0.7805 -0.4202 -0.4628
 
              Baa    -0.0010    -0.554    -0.198    -0.185 -0.0742 -0.4585  0.8856
     7 H(1)   Bbb    -0.0008    -0.404    -0.144    -0.135  0.3015  0.8362  0.4582
              Bcc     0.0018     0.959     0.342     0.320  0.9506 -0.3010 -0.0762
 
              Baa    -0.0007    -0.372    -0.133    -0.124  0.0911  0.9081  0.4088
     8 H(1)   Bbb    -0.0005    -0.282    -0.101    -0.094 -0.2695 -0.3727  0.8880
              Bcc     0.0012     0.654     0.233     0.218  0.9587 -0.1911  0.2108
 
              Baa    -0.0010    -0.553    -0.197    -0.184  0.1083  0.7232 -0.6820
     9 H(1)   Bbb    -0.0009    -0.480    -0.171    -0.160 -0.2737  0.6813  0.6790
              Bcc     0.0019     1.033     0.369     0.345  0.9557  0.1132  0.2717
 
              Baa    -0.0049    -2.635    -0.940    -0.879 -0.3251  0.7373 -0.5922
    10 H(1)   Bbb    -0.0011    -0.601    -0.214    -0.201  0.4255  0.6733  0.6047
              Bcc     0.0061     3.236     1.155     1.079  0.8445 -0.0555 -0.5326
 
              Baa    -0.0026    -1.363    -0.487    -0.455  0.1370  0.2906  0.9470
    11 H(1)   Bbb    -0.0013    -0.677    -0.242    -0.226 -0.6814  0.7215 -0.1228
              Bcc     0.0038     2.041     0.728     0.681  0.7189  0.6285 -0.2969
 
              Baa    -0.0057    -3.043    -1.086    -1.015 -0.0781 -0.3348  0.9391
    12 H(1)   Bbb    -0.0014    -0.733    -0.262    -0.244  0.7426 -0.6480 -0.1693
              Bcc     0.0071     3.776     1.348     1.260  0.6652  0.6841  0.2992
 
              Baa    -0.0221   -11.811    -4.214    -3.940 -0.2450  0.7301 -0.6378
    13 H(1)   Bbb     0.0015     0.780     0.278     0.260  0.7798  0.5394  0.3178
              Bcc     0.0207    11.031     3.936     3.679 -0.5761  0.4195  0.7015
 
              Baa    -0.1684   -89.865   -32.066   -29.976 -0.1303  0.9342 -0.3322
    14 H(1)   Bbb    -0.0685   -36.522   -13.032   -12.182  0.1874  0.3522  0.9170
              Bcc     0.2369   126.388    45.098    42.158  0.9736  0.0573 -0.2210
 
              Baa    -0.9303    67.312    24.019    22.453 -0.0442  0.4255  0.9039
    15 O(17)  Bbb    -0.8794    63.633    22.706    21.226  0.7482 -0.5855  0.3122
              Bcc     1.8097  -130.945   -46.724   -43.679  0.6620  0.6901 -0.2924
 
              Baa    -0.3949    28.578    10.197     9.533 -0.2876  0.9560 -0.0582
    16 O(17)  Bbb    -0.2482    17.957     6.408     5.990  0.2308  0.1281  0.9645
              Bcc     0.6431   -46.535   -16.605   -15.522  0.9295  0.2639 -0.2575
 
              Baa    -0.0199   -10.641    -3.797    -3.549  0.2147  0.9766 -0.0083
    17 H(1)   Bbb    -0.0071    -3.781    -1.349    -1.261  0.7630 -0.1730 -0.6228
              Bcc     0.0270    14.422     5.146     4.811  0.6097 -0.1274  0.7823
 

 ---------------------------------------------------------------------------------

 Calling FoFJK, ICntrl=      2127 FMM=F ISym2X=0 I1Cent= 0 IOpClX= 1 NMat=1 NMatS=1 NMatT=0.
 ***** Axes restored to original set *****
 -------------------------------------------------------------------
 Center     Atomic                   Forces (Hartrees/Bohr)
 Number     Number              X              Y              Z
 -------------------------------------------------------------------
      1        6          -0.010230215    0.010397586   -0.000181356
      2        6          -0.000187416    0.003992878    0.000298745
      3        6           0.035926298   -0.044082484   -0.040319721
      4        6          -0.086618807    0.059265626    0.074361178
      5        6           0.004134442   -0.008839614   -0.001319750
      6        8          -0.168619692   -0.009529384    0.074612403
      7        1          -0.000533719    0.001317438    0.000709905
      8        1          -0.000697481    0.001720888    0.000105502
      9        1           0.001563139   -0.001398244   -0.000766768
     10        1           0.001243007    0.001990043   -0.001284099
     11        1           0.001486446   -0.003079219    0.001638621
     12        1          -0.005982762   -0.008391076   -0.000125186
     13        1          -0.026688465   -0.005158723    0.008290639
     14        1           0.018850976   -0.065110784   -0.073181052
     15        8           0.246729178    0.057657788   -0.044328591
     16        8          -0.015422534    0.013348899    0.003136145
     17        1           0.005047606   -0.004101616   -0.001646615
 -------------------------------------------------------------------
 Cartesian Forces:  Max     0.246729178 RMS     0.051134757

 GradGradGradGradGradGradGradGradGradGradGradGradGradGradGradGradGradGrad
 Berny optimization.
 FormGI is forming the generalized inverse of G from B-inverse, IUseBI=4.
 Internal  Forces:  Max     0.264917473 RMS     0.052780186
 Search for a local minimum.
 Step number   1 out of a maximum of   73
 All quantities printed in internal units (Hartrees-Bohrs-Radians)
 Mixed Optimization -- RFO/linear search
 Second derivative matrix not updated -- first step.
 ITU=  0
     Eigenvalues ---    0.00414   0.00658   0.00747   0.00756   0.01001
     Eigenvalues ---    0.01183   0.01271   0.01621   0.02211   0.02726
     Eigenvalues ---    0.02889   0.02889   0.05025   0.06537   0.06969
     Eigenvalues ---    0.09801   0.13182   0.15999   0.15999   0.16000
     Eigenvalues ---    0.16000   0.16000   0.16000   0.16000   0.16000
     Eigenvalues ---    0.21924   0.22000   0.22000   0.25000   0.30701
     Eigenvalues ---    0.31537   0.32229   0.34069   0.34074   0.34821
     Eigenvalues ---    0.35011   0.35297   0.35318   0.36150   0.49809
     Eigenvalues ---    0.51068   0.52015   0.56655   0.56679   0.57309
 RFO step:  Lambda=-2.74220140D-01 EMin= 4.13792694D-03
 Linear search not attempted -- first point.
 Maximum step size (   0.300) exceeded in Quadratic search.
    -- Step size scaled by   0.435
 Iteration  1 RMS(Cart)=  0.14863306 RMS(Int)=  0.00624691
 Iteration  2 RMS(Cart)=  0.01536204 RMS(Int)=  0.00006712
 Iteration  3 RMS(Cart)=  0.00013331 RMS(Int)=  0.00001259
 Iteration  4 RMS(Cart)=  0.00000001 RMS(Int)=  0.00001259
 Variable       Old X    -DE/DX   Delta X   Delta X   Delta X     New X
                                 (Linear)    (Quad)   (Total)
    R1        2.83727   0.00561   0.00000   0.00408   0.00408   2.84136
    R2        2.53136  -0.00635   0.00000  -0.00326  -0.00326   2.52810
    R3        2.05657   0.00124   0.00000   0.00086   0.00086   2.05743
    R4        2.85000   0.00318   0.00000   0.00235   0.00235   2.85235
    R5        2.07205   0.00078   0.00000   0.00055   0.00055   2.07260
    R6        2.07213   0.00316   0.00000   0.00223   0.00223   2.07436
    R7        2.53690   0.00496   0.00000   0.00256   0.00256   2.53947
    R8        2.05967   0.00671   0.00000   0.00468   0.00468   2.06435
    R9        2.53670   0.05231   0.00000   0.02703   0.02703   2.56373
   R10        2.13286   0.01312   0.00000   0.00981   0.00981   2.14267
   R11        2.05162   0.00138   0.00000   0.00096   0.00096   2.05258
   R12        2.05195   0.00052   0.00000   0.00036   0.00036   2.05230
   R13        1.85503   0.26492   0.00000   0.14667   0.14667   2.00170
   R14        1.86758   0.23446   0.00000   0.13192   0.13192   1.99950
   R15        2.77148  -0.01360   0.00000  -0.00930  -0.00930   2.76218
   R16        1.84585  -0.00153   0.00000  -0.00083  -0.00083   1.84501
    A1        2.17053   0.00192   0.00000   0.00169   0.00169   2.17222
    A2        2.04030  -0.00255   0.00000  -0.00243  -0.00243   2.03787
    A3        2.07229   0.00063   0.00000   0.00075   0.00075   2.07304
    A4        1.93819   0.00479   0.00000   0.00418   0.00418   1.94237
    A5        1.92973  -0.00176   0.00000  -0.00156  -0.00156   1.92817
    A6        1.89514   0.00054   0.00000   0.00105   0.00105   1.89619
    A7        1.95156  -0.00230   0.00000  -0.00235  -0.00235   1.94921
    A8        1.89280  -0.00291   0.00000  -0.00286  -0.00286   1.88994
    A9        1.85325   0.00151   0.00000   0.00147   0.00146   1.85471
   A10        2.26298  -0.01457   0.00000  -0.01281  -0.01281   2.25017
   A11        1.99661  -0.00045   0.00000  -0.00133  -0.00133   1.99527
   A12        2.02353   0.01502   0.00000   0.01415   0.01415   2.03768
   A13        1.60335   0.02920   0.00000   0.04396   0.04396   1.64731
   A14        1.35384   0.08298   0.00000   0.09778   0.09778   1.45162
   A15        2.12583  -0.00027   0.00000  -0.00027  -0.00027   2.12555
   A16        2.10723   0.00197   0.00000   0.00197   0.00197   2.10920
   A17        2.05011  -0.00169   0.00000  -0.00170  -0.00170   2.04841
   A18        1.89709   0.00987   0.00000   0.00988   0.00988   1.90697
   A19        2.10119   0.16117   0.00000   0.13360   0.13360   2.23479
   A20        1.96939  -0.00147   0.00000  -0.00147  -0.00147   1.96792
   A21        1.68673   0.01199   0.00000   0.01200   0.01200   1.69873
   A22        2.95718   0.11218   0.00000   0.14174   0.14174   3.09893
   A23        3.13905  -0.00140   0.00000  -0.00209  -0.00213   3.13692
    D1       -2.03760  -0.00003   0.00000  -0.00001  -0.00001  -2.03761
    D2        0.13934  -0.00082   0.00000  -0.00117  -0.00117   0.13818
    D3        2.16596   0.00033   0.00000   0.00034   0.00034   2.16630
    D4        1.11679  -0.00047   0.00000  -0.00068  -0.00067   1.11612
    D5       -2.98944  -0.00127   0.00000  -0.00183  -0.00183  -2.99127
    D6       -0.96283  -0.00012   0.00000  -0.00033  -0.00033  -0.96315
    D7        0.01090  -0.00053   0.00000  -0.00078  -0.00078   0.01011
    D8       -3.13701  -0.00030   0.00000  -0.00045  -0.00045  -3.13746
    D9        3.13946  -0.00010   0.00000  -0.00013  -0.00013   3.13934
   D10       -0.00844   0.00013   0.00000   0.00020   0.00020  -0.00824
   D11        2.06831  -0.00095   0.00000  -0.00120  -0.00119   2.06713
   D12       -1.08650  -0.00031   0.00000  -0.00031  -0.00032  -1.08682
   D13       -0.09626  -0.00051   0.00000  -0.00054  -0.00053  -0.09679
   D14        3.03211   0.00012   0.00000   0.00036   0.00034   3.03246
   D15       -2.13385   0.00075   0.00000   0.00078   0.00079  -2.13306
   D16        0.99452   0.00139   0.00000   0.00168   0.00166   0.99619
   D17       -0.01402   0.00212   0.00000   0.00309   0.00307  -0.01095
   D18        3.14096   0.00157   0.00000   0.00228   0.00228  -3.13994
   D19       -3.10399   0.00228   0.00000   0.00368   0.00374  -3.10024
   D20        0.05163   0.00344   0.00000   0.00524   0.00520   0.05683
   D21       -3.09102   0.00290   0.00000   0.00428   0.00426  -3.08677
   D22       -3.02229   0.00130   0.00000   0.00197   0.00197  -3.02032
   D23        2.26999   0.00205   0.00000   0.00311   0.00311   2.27310
   D24       -1.98040  -0.00127   0.00000  -0.00198  -0.00198  -1.98238
         Item               Value     Threshold  Converged?
 Maximum Force            0.264917     0.000450     NO 
 RMS     Force            0.052780     0.000300     NO 
 Maximum Displacement     0.345428     0.001800     NO 
 RMS     Displacement     0.155671     0.001200     NO 
 Predicted change in Energy=-1.056258D-01
 GradGradGradGradGradGradGradGradGradGradGradGradGradGradGradGradGradGrad

                          Input orientation:                          
 ---------------------------------------------------------------------
 Center     Atomic      Atomic             Coordinates (Angstroms)
 Number     Number       Type             X           Y           Z
 ---------------------------------------------------------------------
      1          6           0       -9.589358    1.317980    0.563519
      2          6           0       -8.490731    1.199883    1.583237
      3          6           0       -7.137445    1.101885    0.921954
      4          6           0       -6.086568    1.933455    1.022071
      5          6           0      -10.395856    2.378081    0.439067
      6          8           0       -5.054867    2.803002    1.163574
      7          1           0      -10.298553    3.249389    1.080263
      8          1           0      -11.174579    2.399582   -0.317634
      9          1           0       -9.731834    0.469807   -0.104063
     10          1           0       -8.535173    2.034428    2.293496
     11          1           0       -8.653888    0.287092    2.170732
     12          1           0       -7.009662    0.222268    0.286898
     13          1           0       -6.611881    2.652915    1.723528
     14          1           0       -4.250560    2.494148    0.547362
     15          8           0       -3.272006    2.894198    0.503209
     16          8           0       -2.236523    1.866407    0.592269
     17          1           0       -1.868798    2.134581    1.456038
 ---------------------------------------------------------------------
                    Distance matrix (angstroms):
                    1          2          3          4          5
     1  C    0.000000
     2  C    1.503581   0.000000
     3  C    2.487379   1.509398   0.000000
     4  C    3.585892   2.575468   1.343828   0.000000
     5  C    1.337812   2.515309   3.532577   4.371219   0.000000
     6  O    4.809051   3.814612   2.699872   1.356666   5.406629
     7  H    2.121397   2.778791   3.824845   4.413150   1.086177
     8  H    2.111686   3.500804   4.418036   5.282039   1.086033
     9  H    1.088743   2.218181   2.860610   4.086368   2.092229
    10  H    2.148820   1.096772   2.168965   2.760866   2.649368
    11  H    2.126257   1.097706   2.126720   3.258998   3.225733
    12  H    2.816369   2.197678   1.092407   2.078640   4.017088
    13  H    3.463098   2.379298   1.823302   1.133851   4.005477
    14  H    5.466846   4.552714   3.226890   1.977537   6.147347
    15  O    6.511302   5.592160   4.281279   3.018941   7.142810
    16  O    7.373315   6.367211   4.971138   3.874541   8.176796
    17  H    7.814761   6.688785   5.395401   4.244804   8.590940
                    6          7          8          9         10
     6  O    0.000000
     7  H    5.263312   0.000000
     8  H    6.309326   1.855723   0.000000
     9  H    5.378171   3.074065   2.418917   0.000000
    10  H    3.738979   2.461215   3.730657   3.102954   0.000000
    11  H    4.505233   3.559389   4.124132   2.523895   1.755661
    12  H    3.354098   4.539790   4.738426   2.761221   3.104439
    13  H    1.661436   3.789607   5.004871   4.223761   2.099152
    14  H    1.059253   6.118219   6.978481   5.879343   4.649542
    15  O    1.903416   7.059145   7.960471   6.926459   5.625412
    16  O    3.024344   8.194334   9.000057   7.656046   6.526514
    17  H    3.268541   8.511450   9.477009   8.187352   6.719518
                   11         12         13         14         15
    11  H    0.000000
    12  H    2.501302   0.000000
    13  H    3.157040   2.851348   0.000000
    14  H    5.186109   3.583564   2.642804   0.000000
    15  O    6.208244   4.599574   3.564010   1.058091   0.000000
    16  O    6.794730   5.057598   4.587167   2.110075   1.461680
    17  H    7.068342   5.608237   4.778814   2.574446   1.858465
                   16         17
    16  O    0.000000
    17  H    0.976338   0.000000
 Stoichiometry    C5H9O3(2)
 Framework group  C1[X(C5H9O3)]
 Deg. of freedom    45
 Full point group                 C1      NOp   1
 Largest Abelian subgroup         C1      NOp   1
 Largest concise Abelian subgroup C1      NOp   1
                         Standard orientation:                         
 ---------------------------------------------------------------------
 Center     Atomic      Atomic             Coordinates (Angstroms)
 Number     Number       Type             X           Y           Z
 ---------------------------------------------------------------------
      1          6           0       -3.242691   -0.250335   -0.379684
      2          6           0       -2.170544   -0.669423    0.587591
      3          6           0       -0.829308   -0.781342   -0.095666
      4          6           0        0.301121   -0.096020    0.145871
      5          6           0       -3.934125    0.891813   -0.295078
      6          8           0        1.416068    0.620657    0.435365
      7          1           0       -3.752426    1.613335    0.496232
      8          1           0       -4.700237    1.134423   -1.025611
      9          1           0       -3.466708   -0.939667   -1.192088
     10          1           0       -2.134193    0.017912    1.441498
     11          1           0       -2.432067   -1.654049    0.996341
     12          1           0       -0.788046   -1.535351   -0.885046
     13          1           0       -0.152639    0.530135    0.975118
     14          1           0        2.189105    0.350961   -0.236718
     15          8           0        3.204129    0.649087   -0.216573
     16          8           0        4.126942   -0.478514   -0.332518
     17          1           0        4.513377   -0.415697    0.561886
 ---------------------------------------------------------------------
 Rotational constants (GHZ):           7.1244902           0.5311714           0.5152287
 Standard basis: 6-31G(d) (6D, 7F)
 There are   138 symmetry adapted cartesian basis functions of A   symmetry.
 There are   138 symmetry adapted basis functions of A   symmetry.
   138 basis functions,   260 primitive gaussians,   138 cartesian basis functions
    32 alpha electrons       31 beta electrons
       nuclear repulsion energy       338.0229103270 Hartrees.
 NAtoms=   17 NActive=   17 NUniq=   17 SFac= 1.00D+00 NAtFMM=   60 NAOKFM=F Big=F
 Integral buffers will be    131072 words long.
 Raffenetti 2 integral format.
 Two-electron integral symmetry is turned on.
 One-electron integrals computed using PRISM.
 NBasis=   138 RedAO= T EigKep=  1.47D-03  NBF=   138
 NBsUse=   138 1.00D-06 EigRej= -1.00D+00 NBFU=   138
 Initial guess from the checkpoint file:  "/scratch/dinius.ab/QMscratch/Gau-517.chk"
 B after Tr=    -0.000000   -0.000000    0.000000
         Rot=    0.999621    0.027470    0.001519   -0.000146 Ang=   3.15 deg.
 Initial guess <Sx>= 0.0000 <Sy>= 0.0000 <Sz>= 0.5000 <S**2>= 0.7554 S= 0.5027
 ExpMin= 1.61D-01 ExpMax= 5.48D+03 ExpMxC= 8.25D+02 IAcc=2 IRadAn=         4 AccDes= 0.00D+00
 Harris functional with IExCor=  402 and IRadAn=       4 diagonalized for initial guess.
 HarFok:  IExCor=  402 AccDes= 0.00D+00 IRadAn=         4 IDoV= 1 UseB2=F ITyADJ=14
 ICtDFT=  3500011 ScaDFX=  1.000000  1.000000  1.000000  1.000000
 FoFCou: FMM=F IPFlag=           0 FMFlag=      100000 FMFlg1=           0
         NFxFlg=           0 DoJE=T BraDBF=F KetDBF=T FulRan=T
         wScrn=  0.000000 ICntrl=       500 IOpCl=  0 I1Cent=   200000004 NGrid=           0
         NMat0=    1 NMatS0=      1 NMatT0=    0 NMatD0=    1 NMtDS0=    0 NMtDT0=    0
 Petite list used in FoFCou.
 Keep R1 and R2 ints in memory in canonical form, NReq=93340668.
 Requested convergence on RMS density matrix=1.00D-08 within 128 cycles.
 Requested convergence on MAX density matrix=1.00D-06.
 Requested convergence on             energy=1.00D-06.
 No special actions if energy rises.
 Integral accuracy reduced to 1.0D-05 until final iterations.
 Initial convergence to 1.0D-05 achieved.  Increase integral accuracy.
 SCF Done:  E(UB3LYP) =  -421.247274191     A.U. after   19 cycles
            NFock= 19  Conv=0.54D-08     -V/T= 2.0078
 <Sx>= 0.0000 <Sy>= 0.0000 <Sz>= 0.5000 <S**2>= 0.7549 S= 0.5024
 <L.S>= 0.000000000000E+00
 Annihilation of the first spin contaminant:
 S**2 before annihilation     0.7549,   after     0.7500
 Calling FoFJK, ICntrl=      2127 FMM=F ISym2X=0 I1Cent= 0 IOpClX= 1 NMat=1 NMatS=1 NMatT=0.
 ***** Axes restored to original set *****
 -------------------------------------------------------------------
 Center     Atomic                   Forces (Hartrees/Bohr)
 Number     Number              X              Y              Z
 -------------------------------------------------------------------
      1        6          -0.008485248    0.007643242   -0.000163870
      2        6           0.000581478    0.004726091    0.000513645
      3        6           0.042258169   -0.039281052   -0.041126728
      4        6          -0.069747530    0.076289279    0.079844626
      5        6           0.003623177   -0.006712585   -0.001071332
      6        8          -0.076455876   -0.033888495    0.014465320
      7        1          -0.000575571    0.001048155    0.000513668
      8        1          -0.000690542    0.001482014    0.000187657
      9        1           0.001582519   -0.001065913   -0.000648312
     10        1           0.001225592    0.001628214   -0.001329371
     11        1           0.001504744   -0.002209897    0.001176302
     12        1          -0.004381143   -0.006715565    0.000146546
     13        1          -0.014433930   -0.003192277    0.005718286
     14        1           0.007585469   -0.017683607   -0.024364294
     15        8           0.135907914    0.000651613   -0.035582825
     16        8          -0.022945343    0.020816972    0.002802882
     17        1           0.003446121   -0.003536189   -0.001082199
 -------------------------------------------------------------------
 Cartesian Forces:  Max     0.135907914 RMS     0.031786384

 GradGradGradGradGradGradGradGradGradGradGradGradGradGradGradGradGradGrad
 Berny optimization.
 Using GEDIIS/GDIIS optimizer.
 FormGI is forming the generalized inverse of G from B-inverse, IUseBI=4.
 Internal  Forces:  Max     0.127950386 RMS     0.029814861
 Search for a local minimum.
 Step number   2 out of a maximum of   73
 All quantities printed in internal units (Hartrees-Bohrs-Radians)
 Mixed Optimization -- RFO/linear search
 Update second derivatives using D2CorX and points    1    2
 DE= -9.29D-02 DEPred=-1.06D-01 R= 8.79D-01
 TightC=F SS=  1.41D+00  RLast= 3.00D-01 DXNew= 5.0454D-01 9.0051D-01
 Trust test= 8.79D-01 RLast= 3.00D-01 DXMaxT set to 5.05D-01
 ITU=  1  0
 Use linear search instead of GDIIS.
 Linear search step of   0.600 exceeds DXMaxT=   0.505 but not scaled.
 Quartic linear search produced a step of  2.00000.
 Iteration  1 RMS(Cart)=  0.21347537 RMS(Int)=  0.02560394
 Iteration  2 RMS(Cart)=  0.10701435 RMS(Int)=  0.00326810
 Iteration  3 RMS(Cart)=  0.00653290 RMS(Int)=  0.00007795
 Iteration  4 RMS(Cart)=  0.00000861 RMS(Int)=  0.00007756
 Iteration  5 RMS(Cart)=  0.00000000 RMS(Int)=  0.00007756
 Variable       Old X    -DE/DX   Delta X   Delta X   Delta X     New X
                                 (Linear)    (Quad)   (Total)
    R1        2.84136   0.00431   0.00817   0.00000   0.00817   2.84952
    R2        2.52810  -0.00470  -0.00652   0.00000  -0.00652   2.52158
    R3        2.05743   0.00102   0.00172   0.00000   0.00172   2.05915
    R4        2.85235   0.00117   0.00469   0.00000   0.00469   2.85704
    R5        2.07260   0.00033   0.00110   0.00000   0.00110   2.07370
    R6        2.07436   0.00224   0.00447   0.00000   0.00447   2.07883
    R7        2.53947  -0.00112   0.00512   0.00000   0.00512   2.54459
    R8        2.06435   0.00481   0.00937   0.00000   0.00937   2.07372
    R9        2.56373   0.01003   0.05406   0.00000   0.05406   2.61779
   R10        2.14267   0.00820   0.01961   0.00000   0.01961   2.16228
   R11        2.05258   0.00109   0.00192   0.00000   0.00192   2.05449
   R12        2.05230   0.00039   0.00071   0.00000   0.00071   2.05302
   R13        2.00170   0.12795   0.29334   0.00000   0.29334   2.29504
   R14        1.99950   0.11585   0.26384   0.00000   0.26384   2.26335
   R15        2.76218  -0.02586  -0.01860   0.00000  -0.01860   2.74358
   R16        1.84501  -0.00063  -0.00167   0.00000  -0.00167   1.84334
    A1        2.17222   0.00143   0.00338   0.00000   0.00338   2.17560
    A2        2.03787  -0.00217  -0.00487   0.00000  -0.00487   2.03300
    A3        2.07304   0.00074   0.00150   0.00000   0.00150   2.07453
    A4        1.94237   0.00400   0.00835   0.00000   0.00836   1.95073
    A5        1.92817  -0.00137  -0.00312   0.00000  -0.00310   1.92507
    A6        1.89619   0.00056   0.00210   0.00000   0.00211   1.89830
    A7        1.94921  -0.00209  -0.00470   0.00000  -0.00470   1.94451
    A8        1.88994  -0.00252  -0.00573   0.00000  -0.00575   1.88419
    A9        1.85471   0.00133   0.00293   0.00000   0.00291   1.85762
   A10        2.25017  -0.01540  -0.02561   0.00000  -0.02561   2.22456
   A11        1.99527   0.00146  -0.00267   0.00000  -0.00267   1.99260
   A12        2.03768   0.01394   0.02830   0.00000   0.02830   2.06598
   A13        1.64731   0.03827   0.08792   0.00000   0.08792   1.73523
   A14        1.45162   0.06721   0.19556   0.00000   0.19556   1.64718
   A15        2.12555  -0.00020  -0.00054   0.00000  -0.00054   2.12501
   A16        2.10920   0.00174   0.00394   0.00000   0.00394   2.11314
   A17        2.04841  -0.00154  -0.00339   0.00000  -0.00339   2.04502
   A18        1.90697   0.01236   0.01975   0.00000   0.01975   1.92672
   A19        2.23479   0.08586   0.26721   0.00000   0.26721   2.50200
   A20        1.96792  -0.00826  -0.00294   0.00000  -0.00294   1.96498
   A21        1.69873   0.00919   0.02400   0.00000   0.02400   1.72273
   A22        3.09893   0.10548   0.28348   0.00000   0.28349   3.38241
   A23        3.13692   0.00050  -0.00426   0.00000  -0.00453   3.13239
    D1       -2.03761  -0.00003  -0.00002   0.00000  -0.00001  -2.03762
    D2        0.13818  -0.00085  -0.00233   0.00000  -0.00233   0.13585
    D3        2.16630   0.00031   0.00068   0.00000   0.00066   2.16696
    D4        1.11612  -0.00042  -0.00135   0.00000  -0.00134   1.11478
    D5       -2.99127  -0.00124  -0.00366   0.00000  -0.00366  -2.99493
    D6       -0.96315  -0.00009  -0.00065   0.00000  -0.00066  -0.96382
    D7        0.01011  -0.00043  -0.00156   0.00000  -0.00157   0.00855
    D8       -3.13746  -0.00023  -0.00090   0.00000  -0.00091  -3.13837
    D9        3.13934  -0.00005  -0.00025   0.00000  -0.00025   3.13909
   D10       -0.00824   0.00015   0.00041   0.00000   0.00041  -0.00782
   D11        2.06713  -0.00064  -0.00238   0.00000  -0.00229   2.06483
   D12       -1.08682  -0.00038  -0.00064   0.00000  -0.00071  -1.08753
   D13       -0.09679  -0.00027  -0.00105   0.00000  -0.00096  -0.09774
   D14        3.03246  -0.00001   0.00069   0.00000   0.00062   3.03308
   D15       -2.13306   0.00084   0.00158   0.00000   0.00164  -2.13141
   D16        0.99619   0.00110   0.00332   0.00000   0.00322   0.99941
   D17       -0.01095   0.00243   0.00614   0.00000   0.00594  -0.00502
   D18       -3.13994   0.00224   0.00456   0.00000   0.00450  -3.13544
   D19       -3.10024   0.00236   0.00749   0.00000   0.00788  -3.09237
   D20        0.05683   0.00236   0.01040   0.00000   0.01022   0.06705
   D21       -3.08677   0.00112   0.00851   0.00000   0.00831  -3.07846
   D22       -3.02032   0.00228   0.00394   0.00000   0.00394  -3.01638
   D23        2.27310  -0.00071   0.00622   0.00000   0.00622   2.27932
   D24       -1.98238  -0.00104  -0.00397   0.00000  -0.00397  -1.98635
         Item               Value     Threshold  Converged?
 Maximum Force            0.127950     0.000450     NO 
 RMS     Force            0.029815     0.000300     NO 
 Maximum Displacement     0.810317     0.001800     NO 
 RMS     Displacement     0.309521     0.001200     NO 
 Predicted change in Energy=-4.213629D-02
 GradGradGradGradGradGradGradGradGradGradGradGradGradGradGradGradGradGrad

                          Input orientation:                          
 ---------------------------------------------------------------------
 Center     Atomic      Atomic             Coordinates (Angstroms)
 Number     Number       Type             X           Y           Z
 ---------------------------------------------------------------------
      1          6           0       -9.543585    1.274267    0.486183
      2          6           0       -8.523185    1.212990    1.594695
      3          6           0       -7.111319    1.313193    1.063300
      4          6           0       -6.201146    2.268551    1.331716
      5          6           0      -10.456616    2.237464    0.347806
      6          8           0       -5.069574    3.063345    1.414356
      7          1           0      -10.519821    3.070199    1.043896
      8          1           0      -11.167591    2.222348   -0.473519
      9          1           0       -9.524102    0.460072   -0.237730
     10          1           0       -8.726005    1.990341    2.342208
     11          1           0       -8.622400    0.248335    2.114069
     12          1           0       -6.824397    0.493255    0.392791
     13          1           0       -6.819773    2.923810    2.036841
     14          1           0       -4.201890    2.642347    0.676215
     15          8           0       -3.054346    2.783438    0.363569
     16          8           0       -2.323036    1.529364    0.345795
     17          1           0       -1.709494    1.705780    1.083329
 ---------------------------------------------------------------------
                    Distance matrix (angstroms):
                    1          2          3          4          5
     1  C    0.000000
     2  C    1.507903   0.000000
     3  C    2.500100   1.511882   0.000000
     4  C    3.588234   2.564221   1.346540   0.000000
     5  C    1.334362   2.518419   3.543617   4.367845   0.000000
     6  O    4.907044   3.922214   2.712010   1.385274   5.553363
     7  H    2.118833   2.781934   3.834753   4.401867   1.087191
     8  H    2.111227   3.505595   4.431898   5.284561   1.086410
     9  H    1.089653   2.219573   2.870892   4.095826   2.090827
    10  H    2.150820   1.097354   2.168259   2.733754   2.652117
    11  H    2.133338   1.100069   2.126359   3.248972   3.231202
    12  H    2.830669   2.201924   1.097363   2.102783   4.029554
    13  H    3.541848   2.454385   1.904433   1.144231   4.068235
    14  H    5.517378   4.643302   3.221997   2.136921   6.276415
    15  O    6.663547   5.821527   4.371530   3.332382   7.422395
    16  O    7.226418   6.332590   4.846566   4.069175   8.164346
    17  H    7.868657   6.850600   5.416109   4.533580   8.794079
                    6          7          8          9         10
     6  O    0.000000
     7  H    5.462827   0.000000
     8  H    6.438724   1.854995   0.000000
     9  H    5.417495   3.073562   2.421212   0.000000
    10  H    3.921956   2.463632   3.734098   3.103992   0.000000
    11  H    4.586552   3.564883   4.131626   2.527619   1.759934
    12  H    3.275419   4.552003   4.754323   2.772556   3.107669
    13  H    1.862835   3.833761   5.069268   4.307792   2.144373
    14  H    1.214482   6.343067   7.072431   5.824394   4.865004
    15  O    2.289901   7.501893   8.175591   6.900532   6.059022
    16  O    3.322408   8.369517   8.909414   7.303373   6.722811
    17  H    3.639052   8.915439   9.599282   8.022786   7.134226
                   11         12         13         14         15
    11  H    0.000000
    12  H    2.501119   0.000000
    13  H    3.227010   2.934369   0.000000
    14  H    5.228731   3.402422   2.963753   0.000000
    15  O    6.363507   4.411245   4.122861   1.197711   0.000000
    16  O    6.667070   4.619306   5.002476   2.208620   1.451838
    17  H    7.139666   5.301820   5.339263   2.693499   1.867626
                   16         17
    16  O    0.000000
    17  H    0.975455   0.000000
 Stoichiometry    C5H9O3(2)
 Framework group  C1[X(C5H9O3)]
 Deg. of freedom    45
 Full point group                 C1      NOp   1
 Largest Abelian subgroup         C1      NOp   1
 Largest concise Abelian subgroup C1      NOp   1
                         Standard orientation:                         
 ---------------------------------------------------------------------
 Center     Atomic      Atomic             Coordinates (Angstroms)
 Number     Number       Type             X           Y           Z
 ---------------------------------------------------------------------
      1          6           0       -3.191128   -0.525555   -0.339893
      2          6           0       -2.204712   -0.398424    0.793505
      3          6           0       -0.778022   -0.540345    0.313713
      4          6           0        0.205179    0.376903    0.385433
      5          6           0       -4.014139    0.444800   -0.741871
      6          8           0        1.399134    1.076713    0.324430
      7          1           0       -4.020527    1.422843   -0.267135
      8          1           0       -4.705348    0.288515   -1.565336
      9          1           0       -3.226066   -1.488916   -0.847887
     10          1           0       -2.356090    0.549388    1.325412
     11          1           0       -2.398488   -1.198935    1.522743
     12          1           0       -0.548272   -1.517448   -0.129784
     13          1           0       -0.369962    1.229100    0.887665
     14          1           0        2.243330    0.423622   -0.255027
     15          8           0        3.405434    0.394666   -0.543451
     16          8           0        4.025761   -0.880368   -0.231498
     17          1           0        4.635735   -0.580528    0.468174
 ---------------------------------------------------------------------
 Rotational constants (GHZ):           5.5598383           0.5164211           0.5048140
 Standard basis: 6-31G(d) (6D, 7F)
 There are   138 symmetry adapted cartesian basis functions of A   symmetry.
 There are   138 symmetry adapted basis functions of A   symmetry.
   138 basis functions,   260 primitive gaussians,   138 cartesian basis functions
    32 alpha electrons       31 beta electrons
       nuclear repulsion energy       329.5355316725 Hartrees.
 NAtoms=   17 NActive=   17 NUniq=   17 SFac= 1.00D+00 NAtFMM=   60 NAOKFM=F Big=F
 Integral buffers will be    131072 words long.
 Raffenetti 2 integral format.
 Two-electron integral symmetry is turned on.
 One-electron integrals computed using PRISM.
 NBasis=   138 RedAO= T EigKep=  1.88D-03  NBF=   138
 NBsUse=   138 1.00D-06 EigRej= -1.00D+00 NBFU=   138
 Initial guess from the checkpoint file:  "/scratch/dinius.ab/QMscratch/Gau-517.chk"
 B after Tr=     0.000000    0.000000   -0.000000
         Rot=    0.973153    0.230141    0.002653   -0.001380 Ang=  26.61 deg.
 Initial guess <Sx>= 0.0000 <Sy>= 0.0000 <Sz>= 0.5000 <S**2>= 0.7556 S= 0.5028
 ExpMin= 1.61D-01 ExpMax= 5.48D+03 ExpMxC= 8.25D+02 IAcc=2 IRadAn=         4 AccDes= 0.00D+00
 Harris functional with IExCor=  402 and IRadAn=       4 diagonalized for initial guess.
 HarFok:  IExCor=  402 AccDes= 0.00D+00 IRadAn=         4 IDoV= 1 UseB2=F ITyADJ=14
 ICtDFT=  3500011 ScaDFX=  1.000000  1.000000  1.000000  1.000000
 FoFCou: FMM=F IPFlag=           0 FMFlag=      100000 FMFlg1=           0
         NFxFlg=           0 DoJE=T BraDBF=F KetDBF=T FulRan=T
         wScrn=  0.000000 ICntrl=       500 IOpCl=  0 I1Cent=   200000004 NGrid=           0
         NMat0=    1 NMatS0=      1 NMatT0=    0 NMatD0=    1 NMtDS0=    0 NMtDT0=    0
 Petite list used in FoFCou.
 Keep R1 and R2 ints in memory in canonical form, NReq=93340668.
 Requested convergence on RMS density matrix=1.00D-08 within 128 cycles.
 Requested convergence on MAX density matrix=1.00D-06.
 Requested convergence on             energy=1.00D-06.
 No special actions if energy rises.
 Integral accuracy reduced to 1.0D-05 until final iterations.
 Initial convergence to 1.0D-05 achieved.  Increase integral accuracy.
 SCF Done:  E(UB3LYP) =  -421.328965666     A.U. after   27 cycles
            NFock= 27  Conv=0.58D-08     -V/T= 2.0096
 <Sx>= 0.0000 <Sy>= 0.0000 <Sz>= 0.5000 <S**2>= 0.7568 S= 0.5034
 <L.S>= 0.000000000000E+00
 Annihilation of the first spin contaminant:
 S**2 before annihilation     0.7568,   after     0.7500
 Calling FoFJK, ICntrl=      2127 FMM=F ISym2X=0 I1Cent= 0 IOpClX= 1 NMat=1 NMatS=1 NMatT=0.
 ***** Axes restored to original set *****
 -------------------------------------------------------------------
 Center     Atomic                   Forces (Hartrees/Bohr)
 Number     Number              X              Y              Z
 -------------------------------------------------------------------
      1        6          -0.004619751    0.002308051   -0.000120129
      2        6           0.002204783    0.005963936   -0.000010172
      3        6           0.041110168   -0.029670433   -0.039562733
      4        6          -0.040787758    0.084327516    0.075274278
      5        6           0.001953288   -0.002591569   -0.000575633
      6        8          -0.012442200   -0.063265702   -0.044547607
      7        1          -0.000620744    0.000500616    0.000126529
      8        1          -0.000583081    0.001029646    0.000297211
      9        1           0.001464830   -0.000405621   -0.000348811
     10        1           0.001201136    0.001129116   -0.001236144
     11        1           0.001071242   -0.000616678    0.000593145
     12        1          -0.001501984   -0.003713861    0.003198793
     13        1           0.009571117   -0.006554327   -0.000594552
     14        1          -0.001425491    0.015116826    0.011800087
     15        8           0.023940250   -0.033233499   -0.007069352
     16        8          -0.023257263    0.031090762    0.002983539
     17        1           0.002721458   -0.001414781   -0.000208450
 -------------------------------------------------------------------
 Cartesian Forces:  Max     0.084327516 RMS     0.023677389

 GradGradGradGradGradGradGradGradGradGradGradGradGradGradGradGradGradGrad
 Berny optimization.
 Using GEDIIS/GDIIS optimizer.
 FormGI is forming the generalized inverse of G from B-inverse, IUseBI=4.
 Internal  Forces:  Max     0.085624354 RMS     0.015545752
 Search for a local minimum.
 Step number   3 out of a maximum of   73
 All quantities printed in internal units (Hartrees-Bohrs-Radians)
[...]
     1  C   -0.036286  -0.025939   0.371387  -0.035267  -0.036480  -0.001077
     2  C   -0.012309   0.004937  -0.056181   0.369323   0.359466  -0.038218
     3  C    0.000188  -0.000127  -0.001397  -0.042560  -0.038322   0.331781
     4  C    0.000038  -0.000006   0.000065  -0.003949   0.000909  -0.027605
     5  C    0.370805   0.369377  -0.041263  -0.005191   0.000519   0.000003
     6  O    0.000000  -0.000000   0.000002   0.000082  -0.000062  -0.002672
     7  H    0.563195  -0.040981   0.005634   0.006607   0.000153   0.000010
     8  H   -0.040981   0.547752  -0.007666   0.000039  -0.000190   0.000005
     9  H    0.005634  -0.007666   0.577683   0.004645  -0.001586   0.002044
    10  H    0.006607   0.000039   0.004645   0.566132  -0.030770   0.003631
    11  H    0.000153  -0.000190  -0.001586  -0.030770   0.571210  -0.001346
    12  H    0.000010   0.000005   0.002044   0.003631  -0.001346   0.492492
    13  H    0.000022  -0.000000   0.000009   0.007774  -0.000125   0.004350
    14  H    0.000000  -0.000000  -0.000000   0.000004  -0.000001   0.000268
    15  O    0.000000   0.000000   0.000000  -0.000000  -0.000000  -0.002408
    16  O   -0.000000  -0.000000  -0.000003  -0.000001   0.000001   0.032217
    17  H    0.000000   0.000000   0.000000   0.000000   0.000000  -0.001602
              13         14         15         16         17
     1  C    0.000110  -0.000001  -0.000000  -0.000008   0.000000
     2  C    0.003111   0.000101  -0.000001   0.000192  -0.000010
     3  C   -0.111776  -0.001192   0.001430  -0.011284   0.000716
     4  C    0.365535  -0.006241   0.001070  -0.000489   0.000020
     5  C   -0.000012  -0.000000   0.000000  -0.000000   0.000000
     6  O   -0.048026   0.065187  -0.017590   0.000422   0.000020
     7  H    0.000022   0.000000   0.000000  -0.000000   0.000000
     8  H   -0.000000  -0.000000   0.000000  -0.000000   0.000000
     9  H    0.000009  -0.000000   0.000000  -0.000003   0.000000
    10  H    0.007774   0.000004  -0.000000  -0.000001   0.000000
    11  H   -0.000125  -0.000001  -0.000000   0.000001   0.000000
    12  H    0.004350   0.000268  -0.002408   0.032217  -0.001602
    13  H    0.657173   0.000939  -0.000053  -0.000002   0.000001
    14  H    0.000939   0.331536   0.185883  -0.021601   0.001151
    15  O   -0.000053   0.185883   8.237261   0.082102  -0.023652
    16  O   -0.000002  -0.021601   0.082102   8.128936   0.221158
    17  H    0.000001   0.001151  -0.023652   0.221158   0.390574
          Atomic-Atomic Spin Densities.
               1          2          3          4          5          6
     1  C    0.055724   0.010485  -0.021075  -0.000481  -0.004053   0.000024
     2  C    0.010485  -0.045513  -0.027441  -0.003363   0.000244   0.000031
     3  C   -0.021075  -0.027441   0.798593   0.046706   0.000376  -0.017417
     4  C   -0.000481  -0.003363   0.046706  -0.088303  -0.000006  -0.047582
     5  C   -0.004053   0.000244   0.000376  -0.000006   0.011601   0.000000
     6  O    0.000024   0.000031  -0.017417  -0.047582   0.000000   0.412354
     7  H   -0.000773   0.000048   0.000179   0.000008   0.000628  -0.000000
     8  H   -0.000075  -0.000039  -0.000123  -0.000002  -0.000564   0.000000
     9  H   -0.001354   0.000557   0.000823   0.000015   0.000436  -0.000001
    10  H   -0.000117   0.002437  -0.001005   0.000622   0.000033   0.000000
    11  H   -0.011312   0.008963  -0.013447  -0.000451   0.000866   0.000022
    12  H    0.000135   0.001991  -0.006752   0.000060  -0.000003   0.000550
    13  H   -0.000038   0.000661  -0.001159   0.005513   0.000003   0.000916
    14  H    0.000000  -0.000002   0.000041   0.000346   0.000000  -0.002989
    15  O   -0.000000  -0.000000   0.000028  -0.000011  -0.000000   0.000453
    16  O   -0.000000   0.000001  -0.000140   0.000025   0.000000  -0.000007
    17  H   -0.000000  -0.000000   0.000003  -0.000004   0.000000   0.000002
               7          8          9         10         11         12
     1  C   -0.000773  -0.000075  -0.001354  -0.000117  -0.011312   0.000135
     2  C    0.000048  -0.000039   0.000557   0.002437   0.008963   0.001991
     3  C    0.000179  -0.000123   0.000823  -0.001005  -0.013447  -0.006752
     4  C    0.000008  -0.000002   0.000015   0.000622  -0.000451   0.000060
     5  C    0.000628  -0.000564   0.000436   0.000033   0.000866  -0.000003
     6  O   -0.000000   0.000000  -0.000001   0.000000   0.000022   0.000550
     7  H    0.000335  -0.000392   0.000005  -0.000006   0.000061   0.000000
     8  H   -0.000392   0.003357  -0.000099   0.000001  -0.000039  -0.000000
     9  H    0.000005  -0.000099  -0.001197  -0.000011   0.000278  -0.000036
    10  H   -0.000006   0.000001  -0.000011   0.000086  -0.000672  -0.000123
    11  H    0.000061  -0.000039   0.000278  -0.000672   0.047482   0.000210
    12  H    0.000000  -0.000000  -0.000036  -0.000123   0.000210  -0.030350
    13  H   -0.000000  -0.000000  -0.000001  -0.000280   0.000008  -0.000083
    14  H   -0.000000   0.000000  -0.000000  -0.000000  -0.000000  -0.000043
    15  O    0.000000  -0.000000   0.000000   0.000000   0.000000  -0.000024
    16  O   -0.000000  -0.000000   0.000000   0.000000   0.000000   0.000881
    17  H    0.000000  -0.000000  -0.000000  -0.000000   0.000000  -0.000051
              13         14         15         16         17
     1  C   -0.000038   0.000000  -0.000000  -0.000000  -0.000000
     2  C    0.000661  -0.000002  -0.000000   0.000001  -0.000000
     3  C   -0.001159   0.000041   0.000028  -0.000140   0.000003
     4  C    0.005513   0.000346  -0.000011   0.000025  -0.000004
     5  C    0.000003   0.000000  -0.000000   0.000000   0.000000
     6  O    0.000916  -0.002989   0.000453  -0.000007   0.000002
     7  H   -0.000000  -0.000000   0.000000  -0.000000   0.000000
     8  H   -0.000000   0.000000  -0.000000  -0.000000  -0.000000
     9  H   -0.000001  -0.000000   0.000000   0.000000  -0.000000
    10  H   -0.000280  -0.000000   0.000000   0.000000  -0.000000
    11  H    0.000008  -0.000000   0.000000   0.000000   0.000000
    12  H   -0.000083  -0.000043  -0.000024   0.000881  -0.000051
    13  H   -0.006330  -0.000042   0.000002  -0.000000  -0.000000
    14  H   -0.000042  -0.002139   0.001948  -0.000024  -0.000006
    15  O    0.000002   0.001948  -0.002662   0.000045  -0.000003
    16  O   -0.000000  -0.000024   0.000045  -0.001041   0.000052
    17  H   -0.000000  -0.000006  -0.000003   0.000052  -0.000003
 Mulliken charges and spin densities:
               1          2
     1  C   -0.046478   0.027091
     2  C   -0.370919  -0.050940
     3  C   -0.103157   0.758189
     4  C    0.204774  -0.086907
     5  C   -0.328666   0.009561
     6  O   -0.423037   0.346356
     7  H    0.142922   0.000092
     8  H    0.152801   0.002024
     9  H    0.146627  -0.000583
    10  H    0.159503   0.000964
    11  H    0.176625   0.031970
    12  H    0.208128  -0.033637
    13  H    0.120969  -0.000828
    14  H    0.443968  -0.002910
    15  O   -0.464041  -0.000224
    16  O   -0.431641  -0.000207
    17  H    0.411624  -0.000010
 Sum of Mulliken charges =  -0.00000   1.00000
 Mulliken charges and spin densities with hydrogens summed into heavy atoms:
               1          2
     1  C    0.100149   0.026508
     2  C   -0.034791  -0.018006
     3  C    0.104970   0.724552
     4  C    0.325743  -0.087736
     5  C   -0.032943   0.011677
     6  O   -0.423037   0.346356
    15  O   -0.020074  -0.003135
    16  O   -0.020017  -0.000217
 Electronic spatial extent (au):  <R**2>=           1661.9168
 Charge=             -0.0000 electrons
 Dipole moment (field-independent basis, Debye):
    X=             -3.6652    Y=              0.0925    Z=              2.6474  Tot=              4.5223
 Quadrupole moment (field-independent basis, Debye-Ang):
   XX=            -51.3004   YY=            -47.8362   ZZ=            -46.0491
   XY=             -2.0780   XZ=              7.2220   YZ=             -1.9410
 Traceless Quadrupole moment (field-independent basis, Debye-Ang):
   XX=             -2.9052   YY=              0.5590   ZZ=              2.3461
   XY=             -2.0780   XZ=              7.2220   YZ=             -1.9410
 Octapole moment (field-independent basis, Debye-Ang**2):
  XXX=              8.9961  YYY=             -5.5403  ZZZ=              3.2063  XYY=              0.4446
  XXY=             -2.3670  XXZ=             13.1536  XZZ=             12.1443  YZZ=             -4.1039
  YYZ=              4.7756  XYZ=            -10.7458
 Hexadecapole moment (field-independent basis, Debye-Ang**3):
 XXXX=          -1569.6726 YYYY=           -384.4224 ZZZZ=           -139.3678 XXXY=            -33.1811
 XXXZ=            100.6770 YYYX=            -27.6095 YYYZ=             -5.7293 ZZZX=              1.1285
 ZZZY=             -8.7801 XXYY=           -308.6699 XXZZ=           -260.5268 YYZZ=            -82.9378
 XXYZ=            -20.8506 YYXZ=             19.9775 ZZXY=             -8.1888
 N-N= 3.421227847675D+02 E-N=-1.669885294191D+03  KE= 4.176423230400D+02
                          Isotropic Fermi Contact Couplings
        Atom                 a.u.       MegaHertz       Gauss      10(-4) cm-1
     1  C(13)              0.03172      35.66166      12.72497      11.89545
     2  C(13)             -0.01830     -20.57157      -7.34045      -6.86194
     3  C(13)              0.07769      87.33487      31.16325      29.13178
     4  C(13)             -0.02796     -31.42785     -11.21424     -10.48320
     5  C(13)              0.00191       2.14813       0.76651       0.71654
     6  O(17)              0.04954     -30.02869     -10.71498     -10.01649
     7  H(1)               0.00011       0.50087       0.17872       0.16707
     8  H(1)               0.00097       4.33866       1.54814       1.44722
     9  H(1)              -0.00042      -1.87075      -0.66753      -0.62402
    10  H(1)               0.00034       1.52424       0.54389       0.50843
    11  H(1)               0.01711      76.47757      27.28910      25.51017
    12  H(1)              -0.01110     -49.61476     -17.70378     -16.54970
    13  H(1)              -0.00046      -2.04577      -0.72998      -0.68240
    14  H(1)               0.00006       0.26578       0.09484       0.08866
    15  O(17)             -0.00095       0.57656       0.20573       0.19232
    16  O(17)             -0.00131       0.79658       0.28424       0.26571
    17  H(1)               0.00003       0.14557       0.05194       0.04856
 --------------------------------------------------------
       Center         ----  Spin Dipole Couplings  ----
                      3XX-RR        3YY-RR        3ZZ-RR
 --------------------------------------------------------
     1   Atom        0.009617      0.004379     -0.013996
     2   Atom        0.004641     -0.015563      0.010922
     3   Atom       -0.312625     -0.332238      0.644863
     4   Atom        0.035023      0.016019     -0.051042
     5   Atom       -0.003086     -0.008432      0.011519
     6   Atom       -0.526440     -0.569889      1.096329
     7   Atom        0.002879     -0.001238     -0.001642
     8   Atom        0.001353     -0.000495     -0.000858
     9   Atom       -0.000793      0.006426     -0.005634
    10   Atom        0.010587     -0.004942     -0.005645
    11   Atom        0.003745     -0.006255      0.002510
    12   Atom       -0.010804      0.022959     -0.012155
    13   Atom       -0.004419      0.012786     -0.008367
    14   Atom        0.005829      0.001528     -0.007357
    15   Atom        0.002033     -0.001699     -0.000334
    16   Atom        0.000072      0.001252     -0.001325
    17   Atom        0.001439      0.000544     -0.001983
 --------------------------------------------------------
                        XY            XZ            YZ
 --------------------------------------------------------
     1   Atom        0.033960      0.022173      0.020243
     2   Atom        0.005951      0.003647      0.005202
     3   Atom        0.068309      0.281233      0.241978
     4   Atom        0.016594     -0.028123     -0.021734
     5   Atom        0.000915      0.000323     -0.003432
     6   Atom        0.105027      0.473867      0.397283
     7   Atom       -0.000814      0.001900     -0.000868
     8   Atom        0.002268      0.001838      0.000894
     9   Atom        0.005073      0.000979      0.001707
    10   Atom       -0.006083     -0.003236      0.001453
    11   Atom        0.004638     -0.008916     -0.005394
    12   Atom       -0.044246      0.011052      0.005101
    13   Atom       -0.001432     -0.001136     -0.004799
    14   Atom       -0.009095     -0.002713      0.001134
    15   Atom       -0.000715      0.001120     -0.000046
    16   Atom       -0.002540      0.000366     -0.000118
    17   Atom       -0.002785      0.000686     -0.000838
 --------------------------------------------------------


 ---------------------------------------------------------------------------------
              Anisotropic Spin Dipole Couplings in Principal Axis System
 ---------------------------------------------------------------------------------

       Atom             a.u.   MegaHertz   Gauss  10(-4) cm-1        Axes

              Baa    -0.0273    -3.668    -1.309    -1.224 -0.6316  0.1978  0.7496
     1 C(13)  Bbb    -0.0269    -3.613    -1.289    -1.205 -0.3860  0.7583 -0.5253
              Bcc     0.0543     7.282     2.598     2.429  0.6724  0.6211  0.4026
 
              Baa    -0.0178    -2.386    -0.851    -0.796 -0.2317  0.9619 -0.1449
     2 C(13)  Bbb     0.0034     0.456     0.163     0.152  0.8541  0.1299 -0.5036
              Bcc     0.0144     1.930     0.689     0.644  0.4656  0.2405  0.8517
 
              Baa    -0.3915   -52.534   -18.745   -17.523  0.7203 -0.6928 -0.0337
     3 C(13)  Bbb    -0.3868   -51.904   -18.521   -17.313  0.6445  0.6864 -0.3367
              Bcc     0.7783   104.438    37.266    34.837  0.2564  0.2208  0.9410
 
              Baa    -0.0629    -8.441    -3.012    -2.816  0.2365  0.2114  0.9483
     4 C(13)  Bbb     0.0066     0.891     0.318     0.297 -0.5419  0.8389 -0.0519
              Bcc     0.0563     7.549     2.694     2.518  0.8065  0.5016 -0.3130
 
              Baa    -0.0092    -1.229    -0.438    -0.410 -0.1556  0.9741  0.1641
     5 C(13)  Bbb    -0.0029    -0.394    -0.141    -0.131  0.9878  0.1553  0.0148
              Bcc     0.0121     1.623     0.579     0.541  0.0111 -0.1644  0.9863
 
              Baa    -0.6605    47.791    17.053    15.941  0.3113  0.9054 -0.2887
     6 O(17)  Bbb    -0.6537    47.303    16.879    15.779  0.9155 -0.3673 -0.1645
              Bcc     1.3142   -95.094   -33.932   -31.720  0.2550  0.2131  0.9432
 
              Baa    -0.0026    -1.378    -0.492    -0.460 -0.2421  0.4186  0.8753
     7 H(1)   Bbb    -0.0012    -0.648    -0.231    -0.216  0.3296  0.8839 -0.3316
              Bcc     0.0038     2.026     0.723     0.676  0.9125 -0.2083  0.3520
 
              Baa    -0.0022    -1.162    -0.415    -0.388  0.6371 -0.6052 -0.4773
     8 H(1)   Bbb    -0.0016    -0.848    -0.302    -0.283 -0.0073 -0.6239  0.7815
              Bcc     0.0038     2.010     0.717     0.670  0.7707  0.4945  0.4019
 
              Baa    -0.0059    -3.146    -1.122    -1.049 -0.0908 -0.0999  0.9908
     9 H(1)   Bbb    -0.0034    -1.817    -0.649    -0.606  0.8857 -0.4630  0.0345
              Bcc     0.0093     4.963     1.771     1.655  0.4553  0.8807  0.1305
 
              Baa    -0.0072    -3.818    -1.362    -1.274  0.2493  0.9073 -0.3386
    10 H(1)   Bbb    -0.0062    -3.302    -1.178    -1.101  0.2755  0.2687  0.9230
              Bcc     0.0133     7.120     2.541     2.375  0.9284 -0.3234 -0.1830
 
              Baa    -0.0088    -4.720    -1.684    -1.574 -0.0663  0.9205  0.3851
    11 H(1)   Bbb    -0.0056    -3.006    -1.073    -1.003  0.7270 -0.2198  0.6505
              Bcc     0.0145     7.726     2.757     2.577  0.6834  0.3232 -0.6546
 
              Baa    -0.0456   -24.324    -8.679    -8.114  0.7790  0.5280 -0.3381
    12 H(1)   Bbb    -0.0079    -4.222    -1.506    -1.408  0.2605  0.2179  0.9406
              Bcc     0.0535    28.546    10.186     9.522 -0.5703  0.8208 -0.0322
 
              Baa    -0.0098    -5.219    -1.862    -1.741  0.2573  0.2166  0.9417
    13 H(1)   Bbb    -0.0041    -2.196    -0.784    -0.733  0.9642  0.0065 -0.2650
              Bcc     0.0139     7.415     2.646     2.473 -0.0635  0.9762 -0.2072
 
              Baa    -0.0080    -4.272    -1.525    -1.425  0.2970  0.1716  0.9393
    14 H(1)   Bbb    -0.0054    -2.883    -1.029    -0.962  0.5501  0.7733 -0.3152
              Bcc     0.0134     7.156     2.553     2.387  0.7805 -0.6103 -0.1353
 
              Baa    -0.0019     0.134     0.048     0.045  0.2155  0.9678 -0.1298
    15 O(17)  Bbb    -0.0007     0.053     0.019     0.018 -0.3238  0.1962  0.9256
              Bcc     0.0026    -0.187    -0.067    -0.062  0.9213 -0.1574  0.3557
 
              Baa    -0.0020     0.146     0.052     0.049  0.7574  0.5782 -0.3034
    16 O(17)  Bbb    -0.0013     0.093     0.033     0.031  0.1964  0.2414  0.9503
              Bcc     0.0033    -0.238    -0.085    -0.079 -0.6227  0.7794 -0.0693
 
              Baa    -0.0023    -1.204    -0.430    -0.402  0.1429  0.4114  0.9002
    17 H(1)   Bbb    -0.0017    -0.931    -0.332    -0.311  0.6510  0.6460 -0.3986
              Bcc     0.0040     2.135     0.762     0.712  0.7455 -0.6429  0.1755
 

 ---------------------------------------------------------------------------------

 1\1\GINC-C0262\FOpt\UB3LYP\6-31G(d)\C5H9O3(2)\DINIUS.AB\15-Oct-2018\0\
 \#n B3LYP/6-31G(d) Opt\\Title\\0,2\C,-8.952675901,1.1994801414,0.31639
 07597\C,-8.2113434492,1.2620744424,1.6389172945\C,-6.8378383323,1.8251
 675173,1.4641952215\C,-6.4017969178,3.0268178391,2.0901244387\C,-10.08
 20774817,1.8563082008,0.0565655926\O,-5.2659616181,3.5178941473,1.9417
 747285\H,-10.5596747673,2.4945849912,0.7970913025\H,-10.5765511608,1.7
 760576536,-0.9074889332\H,-8.4972369372,0.5759542554,-0.4524374371\H,-
 8.7843585684,1.8534717876,2.3633086494\H,-8.1276981507,0.2407898247,2.
 0471156428\H,-6.1240571275,1.3191650257,0.8142523263\H,-7.1250096334,3
 .5413036068,2.7500282937\H,-4.0461411815,2.8213604805,0.7402647786\O,-
 3.4187264268,2.4362079529,0.0835132753\O,-4.0283560618,1.1298703123,-0
 .1191942282\H,-3.3587762845,0.5625918211,0.3010982942\\Version=EM64L-G
 16RevA.03\State=2-A\HF=-421.4342532\S2=0.764119\S2-1=0.\S2A=0.750061\R
 MSD=7.250e-09\RMSF=7.319e-06\Dipole=-1.3293248,-0.9183098,0.7450671\Qu
 adrupole=-0.8401271,1.3863552,-0.5462281,-5.464482,2.4312021,-0.074167
 9\PG=C01 [X(C5H9O3)]\\@


 I WOULD TAKE COUNSEL OF MYSELF.
 I WOULD STOP AND LOOK WITHIN
 AND LOOKING WITHIN, LOOK BACK, ALSO
 THAT I MAY LOOK AHEAD WITH CLEARER UNDERSTANDING
 OF THE WAY I HAVE BEEN MOVING, AND IN WHAT DIRECTION.
 I NEED TO KNOW IF I AM GOING FORWARD OR RETREATING,
 WHETHER I HAVE BEEN WASTING, OR ENJOYING
 THE PRECIOUS MOMENTS OF LIFE.  THERE HAVE BEEN FRICTIONS,
 ANNOYANCES AND SOMETIMES WRATH,
 BUT WERE THEY BECAUSE I WAS RIGHT AND OTHERS WRONG.....
 HAVE I HAD MY THOUGHTS TOO SHARPLY FOCUSED
 ON THAT WHICH PLEASED ME, SERVED MY SELF-ESTEEM,
 UNDERGIRDED MY SECURITY,
 OF WHICH I DID NOT INQUIRE WHETHER IT SERVED OR HAMPERED OTHERS.....
 HAVE I BEEN TRYING TO STOP THE CLOCK
 TO HOLD THE WORLD
 IN PERPETUATION OF WHAT WAS AN IS ALREADY SLIPPING AWAY.....
 HAVE I BEEN CRITICAL OF OTHERS FOR WHAT REALLY NEEDED CHANGING IN ME...
 LET ME INDEED TAKE COUNSEL OF MYSELF
 AND SET MY DIRECTIONS STRAIGHT.

                          R.T. WESTON AS ADAPTED BY D. OSBORN 1967
 Job cpu time:       0 days  0 hours 58 minutes  0.8 seconds.
 Elapsed time:       0 days  0 hours 58 minutes 19.3 seconds.
 File lengths (MBytes):  RWF=    272 Int=      0 D2E=      0 Chk=     32 Scr=     32
 Normal termination of Gaussian 16 at Mon Oct 15 18:12:25 2018.
