 Entering Gaussian System, Link 0=g16
 Input=practice22nd.com
 Output=practice22nd.log
 Initial command:
 /shared/centos7/gaussian/g16/l1.exe "/scratch/dinius.ab/QMscratch/Gau-24723.inp" -scrdir="/scratch/dinius.ab/QMscratch/"
 Entering Link 1 = /shared/centos7/gaussian/g16/l1.exe PID=     24724.
  
 Copyright (c) 1988,1990,1992,1993,1995,1998,2003,2009,2016,
            Gaussian, Inc.  All Rights Reserved.
  
 This is part of the Gaussian(R) 16 program.  It is based on
 the Gaussian(R) 09 system (copyright 2009, Gaussian, Inc.),
 the Gaussian(R) 03 system (copyright 2003, Gaussian, Inc.),
 the Gaussian(R) 98 system (copyright 1998, Gaussian, Inc.),
 the Gaussian(R) 94 system (copyright 1995, Gaussian, Inc.),
 the Gaussian 92(TM) system (copyright 1992, Gaussian, Inc.),
 the Gaussian 90(TM) system (copyright 1990, Gaussian, Inc.),
 the Gaussian 88(TM) system (copyright 1988, Gaussian, Inc.),
 the Gaussian 86(TM) system (copyright 1986, Carnegie Mellon
 University), and the Gaussian 82(TM) system (copyright 1983,
 Carnegie Mellon University). Gaussian is a federally registered
 trademark of Gaussian, Inc.
  
 This software contains proprietary and confidential information,
 including trade secrets, belonging to Gaussian, Inc.
  
 This software is provided under written license and may be
 used, copied, transmitted, or stored only in accord with that
 written license.
  
 The following legend is applicable only to US Government
 contracts under FAR:
  
                    RESTRICTED RIGHTS LEGEND
  
 Use, reproduction and disclosure by the US Government is
 subject to restrictions as set forth in subparagraphs (a)
 and (c) of the Commercial Computer Software - Restricted
 Rights clause in FAR 52.227-19.
  
 Gaussian, Inc.
 340 Quinnipiac St., Bldg. 40, Wallingford CT 06492
  
  
 ---------------------------------------------------------------
 Warning -- This program may not be used in any manner that
 competes with the business of Gaussian, Inc. or will provide
 assistance to any competitor of Gaussian, Inc.  The licensee
 of this program is prohibited from giving any competitor of
 Gaussian, Inc. access to this program.  By using this program,
 the user acknowledges that Gaussian, Inc. is engaged in the
 business of creating and licensing software in the field of
 computational chemistry and represents and warrants to the
 licensee that it is not a competitor of Gaussian, Inc. and that
 it will not use this program in any manner prohibited above.
 ---------------------------------------------------------------
  

 Cite this work as:
 Gaussian 16, Revision A.03,
 M. J. Frisch, G. W. Trucks, H. B. Schlegel, G. E. Scuseria, 
 M. A. Robb, J. R. Cheeseman, G. Scalmani, V. Barone, 
 G. A. Petersson, H. Nakatsuji, X. Li, M. Caricato, A. V. Marenich, 
 J. Bloino, B. G. Janesko, R. Gomperts, B. Mennucci, H. P. Hratchian, 
 J. V. Ortiz, A. F. Izmaylov, J. L. Sonnenberg, D. Williams-Young, 
 F. Ding, F. Lipparini, F. Egidi, J. Goings, B. Peng, A. Petrone, 
 T. Henderson, D. Ranasinghe, V. G. Zakrzewski, J. Gao, N. Rega, 
 G. Zheng, W. Liang, M. Hada, M. Ehara, K. Toyota, R. Fukuda, 
 J. Hasegawa, M. Ishida, T. Nakajima, Y. Honda, O. Kitao, H. Nakai, 
 T. Vreven, K. Throssell, J. A. Montgomery, Jr., J. E. Peralta, 
 F. Ogliaro, M. J. Bearpark, J. J. Heyd, E. N. Brothers, K. N. Kudin, 
 V. N. Staroverov, T. A. Keith, R. Kobayashi, J. Normand, 
 K. Raghavachari, A. P. Rendell, J. C. Burant, S. S. Iyengar, 
 J. Tomasi, M. Cossi, J. M. Millam, M. Klene, C. Adamo, R. Cammi, 
 J. W. Ochterski, R. L. Martin, K. Morokuma, O. Farkas, 
 J. B. Foresman, and D. J. Fox, Gaussian, Inc., Wallingford CT, 2016.
 
 ******************************************
 Gaussian 16:  EM64L-G16RevA.03 25-Dec-2016
                26-Oct-2018 
 ******************************************
 ----------------------------------------------------------------------
 #m062x/6-311+g(2df,2p) Opt=(ModRedun,Loose,maxcycle=1000) Int(Grid=SG1
 ) freq
 ----------------------------------------------------------------------
 1/6=1000,7=-1,18=120,19=15,26=2,38=1/1,3;
 2/9=110,12=2,17=6,18=5,40=1/2;
 3/5=4,6=6,7=214,11=2,25=1,30=1,71=1,74=-55,75=1/1,2,3;
 4//1;
 5/5=2,38=5/2;
 6/7=2,8=2,9=2,10=2,28=1/1;
 7//1,2,3,16;
 1/6=1000,7=-1,18=20,19=15,26=2/3(2);
 2/9=110/2;
 99//99;
 2/9=110/2;
 3/5=4,6=6,7=214,11=2,25=1,30=1,71=1,74=-55,75=1/1,2,3;
 4/5=5,16=3,69=1/1;
 5/5=2,38=5/2;
 7//1,2,3,16;
 1/6=1000,7=-1,18=20,19=15,26=2/3(-5);
 2/9=110/2;
 6/7=2,8=2,9=2,10=2,19=2,28=1/1;
 99/9=1/99;
 -----
 Title
 -----
 Symbolic Z-matrix:
 Charge =  0 Multiplicity = 2
 C                    -0.82197   1.3889    0.10524 
 C                    -2.00015   0.78045  -0.00987 
 H                    -0.78914   2.47126   0.14397 
 H                     0.10547   0.83354   0.16674 
 O                    -2.25649  -0.56426  -0.10104 
 H                    -2.9566    1.29419  -0.07484 
 O                    -1.05013  -1.33796   0.07296 
 H                    -0.62396  -1.236    -0.80161 
 O                     2.27962  -0.46742   0.30995 
 O                     3.17184   0.31444  -0.29487 
 H                     4.03825   0.06258   0.09756 
 
 Add virtual bond connecting atoms O9         and H4         Dist= 4.80D+00.
 The following ModRedundant input section has been read:
 

 GradGradGradGradGradGradGradGradGradGradGradGradGradGradGradGradGradGrad
 Berny optimization.
 Initialization pass.
                           ----------------------------
                           !    Initial Parameters    !
                           ! (Angstroms and Degrees)  !
 --------------------------                            --------------------------
 ! Name  Definition              Value          Derivative Info.                !
 --------------------------------------------------------------------------------
 ! R1    R(1,2)                  1.331          estimate D2E/DX2                !
 ! R2    R(1,3)                  1.0836         estimate D2E/DX2                !
 ! R3    R(1,4)                  1.0828         estimate D2E/DX2                !
 ! R4    R(2,5)                  1.372          estimate D2E/DX2                !
 ! R5    R(2,6)                  1.0876         estimate D2E/DX2                !
 ! R6    R(4,9)                  2.5377         estimate D2E/DX2                !
 ! R7    R(5,7)                  1.4437         estimate D2E/DX2                !
 ! R8    R(7,8)                  0.9782         estimate D2E/DX2                !
 ! R9    R(9,10)                 1.3316         estimate D2E/DX2                !
 ! R10   R(10,11)                0.9839         estimate D2E/DX2                !
 ! A1    A(2,1,3)              119.1138         estimate D2E/DX2                !
 ! A2    A(2,1,4)              121.9143         estimate D2E/DX2                !
 ! A3    A(3,1,4)              118.9711         estimate D2E/DX2                !
 ! A4    A(1,2,5)              128.2573         estimate D2E/DX2                !
 ! A5    A(1,2,6)              124.5869         estimate D2E/DX2                !
 ! A6    A(5,2,6)              107.1389         estimate D2E/DX2                !
 ! A7    A(2,5,7)              111.1704         estimate D2E/DX2                !
 ! A8    A(5,7,8)              101.5622         estimate D2E/DX2                !
 ! A9    A(4,9,10)             104.324          estimate D2E/DX2                !
 ! A10   A(9,10,11)            104.9845         estimate D2E/DX2                !
 ! A11   L(1,4,9,7,-1)         180.0174         estimate D2E/DX2                !
 ! A12   L(1,4,9,7,-2)         179.9782         estimate D2E/DX2                !
 ! D1    D(3,1,2,5)            178.638          estimate D2E/DX2                !
 ! D2    D(3,1,2,6)              0.3265         estimate D2E/DX2                !
 ! D3    D(4,1,2,5)             -1.6958         estimate D2E/DX2                !
 ! D4    D(4,1,2,6)            179.9927         estimate D2E/DX2                !
 ! D5    D(2,1,9,10)           147.2266         estimate D2E/DX2                !
 ! D6    D(3,1,9,10)           -33.0883         estimate D2E/DX2                !
 ! D7    D(1,2,5,7)              5.6186         estimate D2E/DX2                !
 ! D8    D(6,2,5,7)           -175.836          estimate D2E/DX2                !
 ! D9    D(2,5,7,8)            -77.5772         estimate D2E/DX2                !
 ! D10   D(4,9,10,11)          154.4142         estimate D2E/DX2                !
 --------------------------------------------------------------------------------
 Trust Radius=3.00D-01 FncErr=1.00D-05 GrdErr=1.00D-04 EigMax=2.50D+02 EigMin=1.00D-04
 Number of steps in this run=    100 maximum allowed number of steps=    100.
 GradGradGradGradGradGradGradGradGradGradGradGradGradGradGradGradGradGrad

                          Input orientation:                          
 ---------------------------------------------------------------------
 Center     Atomic      Atomic             Coordinates (Angstroms)
 Number     Number       Type             X           Y           Z
 ---------------------------------------------------------------------
      1          6           0       -0.821970    1.388900    0.105240
      2          6           0       -2.000150    0.780450   -0.009870
      3          1           0       -0.789140    2.471260    0.143970
      4          1           0        0.105470    0.833540    0.166740
      5          8           0       -2.256490   -0.564260   -0.101040
      6          1           0       -2.956600    1.294190   -0.074840
      7          8           0       -1.050130   -1.337960    0.072960
      8          1           0       -0.623960   -1.236000   -0.801610
      9          8           0        2.279620   -0.467420    0.309950
     10          8           0        3.171840    0.314440   -0.294870
     11          1           0        4.038250    0.062580    0.097560
 ---------------------------------------------------------------------
                    Distance matrix (angstroms):
                    1          2          3          4          5
     1  C    0.000000
     2  C    1.331003   0.000000
     3  H    1.083550   2.085438   0.000000
     4  H    1.082752   2.113680   1.866272   0.000000
     5  O    2.432125   1.371957   3.380463   2.757609   0.000000
     6  H    2.144305   1.087633   2.476137   3.105935   1.986121
     7  O    2.736579   2.323157   3.818811   2.461629   1.443673
     8  H    2.784185   2.566480   3.829515   2.398492   1.899260
     9  O    3.620454   4.469440   4.252138   2.537703   4.555720
    10  O    4.155126   5.200757   4.531425   3.144070   5.502404
    11  H    5.037948   6.081871   5.395145   4.008232   6.328991
                    6          7          8          9         10
     6  H    0.000000
     7  O    3.253411   0.000000
     8  H    3.517281   0.978207   0.000000
     9  O    5.537990   3.449817   3.202664   0.000000
    10  O    6.210161   4.548709   4.131434   1.331604   0.000000
    11  H    7.104542   5.277663   4.922501   1.848997   0.983921
                   11
    11  H    0.000000
 Stoichiometry    C2H5O4(2)
 Framework group  C1[X(C2H5O4)]
 Deg. of freedom    27
 Full point group                 C1      NOp   1
 Largest Abelian subgroup         C1      NOp   1
 Largest concise Abelian subgroup C1      NOp   1
                         Standard orientation:                         
 ---------------------------------------------------------------------
 Center     Atomic      Atomic             Coordinates (Angstroms)
 Number     Number       Type             X           Y           Z
 ---------------------------------------------------------------------
      1          6           0        0.821970    1.388899   -0.105239
      2          6           0        2.000150    0.780450    0.009871
      3          1           0        0.789139    2.471259   -0.143969
      4          1           0       -0.105470    0.833539   -0.166739
      5          8           0        2.256491   -0.564260    0.101041
      6          1           0        2.956600    1.294190    0.074841
      7          8           0        1.050131   -1.337961   -0.072959
      8          1           0        0.623961   -1.236001    0.801611
      9          8           0       -2.279619   -0.467423   -0.309949
     10          8           0       -3.171840    0.314437    0.294871
     11          1           0       -4.038250    0.062576   -0.097559
 ---------------------------------------------------------------------
 Rotational constants (GHZ):           6.0758794           1.1764870           1.0012280
 Standard basis: 6-311+G(2df,2p) (5D, 7F)
 There are   279 symmetry adapted cartesian basis functions of A   symmetry.
 There are   249 symmetry adapted basis functions of A   symmetry.
   249 basis functions,   367 primitive gaussians,   279 cartesian basis functions
    25 alpha electrons       24 beta electrons
       nuclear repulsion energy       217.7380693488 Hartrees.
 NAtoms=   11 NActive=   11 NUniq=   11 SFac= 1.00D+00 NAtFMM=   60 NAOKFM=F Big=F
 Integral buffers will be    131072 words long.
 Raffenetti 2 integral format.
 Two-electron integral symmetry is turned on.
 One-electron integrals computed using PRISM.
 NBasis=   249 RedAO= T EigKep=  7.33D-05  NBF=   249
 NBsUse=   249 1.00D-06 EigRej= -1.00D+00 NBFU=   249
 ExpMin= 4.38D-02 ExpMax= 8.59D+03 ExpMxC= 1.30D+03 IAcc=2 IRadAn=         4 AccDes= 0.00D+00
 Harris functional with IExCor= 1009 and IRadAn=       4 diagonalized for initial guess.
 HarFok:  IExCor= 1009 AccDes= 0.00D+00 IRadAn=         4 IDoV= 1 UseB2=F ITyADJ=14
 ICtDFT=  3500011 ScaDFX=  1.000000  1.000000  1.000000  1.000000
 FoFCou: FMM=F IPFlag=           0 FMFlag=      100000 FMFlg1=           0
         NFxFlg=           0 DoJE=T BraDBF=F KetDBF=T FulRan=T
         wScrn=  0.000000 ICntrl=       500 IOpCl=  0 I1Cent=   200000004 NGrid=           0
         NMat0=    1 NMatS0=      1 NMatT0=    0 NMatD0=    1 NMtDS0=    0 NMtDT0=    0
 Petite list used in FoFCou.
 Initial guess <Sx>= 0.0000 <Sy>= 0.0000 <Sz>= 0.5000 <S**2>= 0.7500 S= 0.5000
 Requested convergence on RMS density matrix=1.00D-08 within 128 cycles.
 Requested convergence on MAX density matrix=1.00D-06.
 Requested convergence on             energy=1.00D-06.
 No special actions if energy rises.
 SCF Done:  E(UM062X) =  -379.826710328     A.U. after   18 cycles
            NFock= 18  Conv=0.77D-08     -V/T= 2.0035
 <Sx>= 0.0000 <Sy>= 0.0000 <Sz>= 0.5000 <S**2>= 0.7553 S= 0.5026
 <L.S>= 0.000000000000E+00
 Annihilation of the first spin contaminant:
 S**2 before annihilation     0.7553,   after     0.7500

 **********************************************************************

            Population analysis using the SCF density.

 **********************************************************************

 Orbital symmetries:
 Alpha Orbitals:
       Occupied  (A) (A) (A) (A) (A) (A) (A) (A) (A) (A) (A) (A)
                 (A) (A) (A) (A) (A) (A) (A) (A) (A) (A) (A) (A)
                 (A)
       Virtual   (A) (A) (A) (A) (A) (A) (A) (A) (A) (A) (A) (A)
                 (A) (A) (A) (A) (A) (A) (A) (A) (A) (A) (A) (A)
                 (A) (A) (A) (A) (A) (A) (A) (A) (A) (A) (A) (A)
                 (A) (A) (A) (A) (A) (A) (A) (A) (A) (A) (A) (A)
                 (A) (A) (A) (A) (A) (A) (A) (A) (A) (A) (A) (A)
                 (A) (A) (A) (A) (A) (A) (A) (A) (A) (A) (A) (A)
                 (A) (A) (A) (A) (A) (A) (A) (A) (A) (A) (A) (A)
                 (A) (A) (A) (A) (A) (A) (A) (A) (A) (A) (A) (A)
                 (A) (A) (A) (A) (A) (A) (A) (A) (A) (A) (A) (A)
                 (A) (A) (A) (A) (A) (A) (A) (A) (A) (A) (A) (A)
                 (A) (A) (A) (A) (A) (A) (A) (A) (A) (A) (A) (A)
                 (A) (A) (A) (A) (A) (A) (A) (A) (A) (A) (A) (A)
                 (A) (A) (A) (A) (A) (A) (A) (A) (A) (A) (A) (A)
                 (A) (A) (A) (A) (A) (A) (A) (A) (A) (A) (A) (A)
                 (A) (A) (A) (A) (A) (A) (A) (A) (A) (A) (A) (A)
                 (A) (A) (A) (A) (A) (A) (A) (A) (A) (A) (A) (A)
                 (A) (A) (A) (A) (A) (A) (A) (A) (A) (A) (A) (A)
                 (A) (A) (A) (A) (A) (A) (A) (A) (A) (A) (A) (A)
                 (A) (A) (A) (A) (A) (A) (A) (A)
 Beta  Orbitals:
       Occupied  (A) (A) (A) (A) (A) (A) (A) (A) (A) (A) (A) (A)
                 (A) (A) (A) (A) (A) (A) (A) (A) (A) (A) (A) (A)
       Virtual   (A) (A) (A) (A) (A) (A) (A) (A) (A) (A) (A) (A)
                 (A) (A) (A) (A) (A) (A) (A) (A) (A) (A) (A) (A)
                 (A) (A) (A) (A) (A) (A) (A) (A) (A) (A) (A) (A)
                 (A) (A) (A) (A) (A) (A) (A) (A) (A) (A) (A) (A)
                 (A) (A) (A) (A) (A) (A) (A) (A) (A) (A) (A) (A)
                 (A) (A) (A) (A) (A) (A) (A) (A) (A) (A) (A) (A)
                 (A) (A) (A) (A) (A) (A) (A) (A) (A) (A) (A) (A)
                 (A) (A) (A) (A) (A) (A) (A) (A) (A) (A) (A) (A)
                 (A) (A) (A) (A) (A) (A) (A) (A) (A) (A) (A) (A)
                 (A) (A) (A) (A) (A) (A) (A) (A) (A) (A) (A) (A)
                 (A) (A) (A) (A) (A) (A) (A) (A) (A) (A) (A) (A)
                 (A) (A) (A) (A) (A) (A) (A) (A) (A) (A) (A) (A)
                 (A) (A) (A) (A) (A) (A) (A) (A) (A) (A) (A) (A)
                 (A) (A) (A) (A) (A) (A) (A) (A) (A) (A) (A) (A)
                 (A) (A) (A) (A) (A) (A) (A) (A) (A) (A) (A) (A)
                 (A) (A) (A) (A) (A) (A) (A) (A) (A) (A) (A) (A)
                 (A) (A) (A) (A) (A) (A) (A) (A) (A) (A) (A) (A)
                 (A) (A) (A) (A) (A) (A) (A) (A) (A) (A) (A) (A)
                 (A) (A) (A) (A) (A) (A) (A) (A) (A)
 The electronic state is 2-A.
 Alpha  occ. eigenvalues --  -19.76531 -19.73001 -19.70972 -19.69139 -10.60054
 Alpha  occ. eigenvalues --  -10.52567  -1.34562  -1.27041  -1.04970  -1.00754
 Alpha  occ. eigenvalues --   -0.84636  -0.68641  -0.66661  -0.60769  -0.60052
 Alpha  occ. eigenvalues --   -0.58443  -0.58300  -0.54963  -0.47167  -0.45032
 Alpha  occ. eigenvalues --   -0.44236  -0.40757  -0.40693  -0.39282  -0.30225
 Alpha virt. eigenvalues --    0.02338   0.02975   0.03933   0.04676   0.04882
 Alpha virt. eigenvalues --    0.05889   0.07451   0.09459   0.10037   0.10634
 Alpha virt. eigenvalues --    0.12377   0.14389   0.15498   0.16273   0.17703
 Alpha virt. eigenvalues --    0.18897   0.19926   0.20501   0.21724   0.21928
 Alpha virt. eigenvalues --    0.23114   0.23702   0.25011   0.25898   0.28210
 Alpha virt. eigenvalues --    0.28341   0.29073   0.31231   0.33990   0.36058
 Alpha virt. eigenvalues --    0.36728   0.39607   0.40726   0.43948   0.46744
 Alpha virt. eigenvalues --    0.50106   0.52741   0.53959   0.54332   0.56613
 Alpha virt. eigenvalues --    0.58666   0.62624   0.63945   0.66963   0.68456
 Alpha virt. eigenvalues --    0.68680   0.71828   0.75502   0.77375   0.78292
 Alpha virt. eigenvalues --    0.79594   0.80264   0.83616   0.86179   0.87610
 Alpha virt. eigenvalues --    0.90809   0.92959   0.94592   0.97386   1.00836
 Alpha virt. eigenvalues --    1.03492   1.04719   1.06762   1.08180   1.08727
 Alpha virt. eigenvalues --    1.09408   1.11820   1.15847   1.17187   1.19556
 Alpha virt. eigenvalues --    1.21190   1.22824   1.24805   1.27991   1.30086
 Alpha virt. eigenvalues --    1.31176   1.33308   1.35780   1.37968   1.40550
 Alpha virt. eigenvalues --    1.42167   1.43839   1.49073   1.50794   1.52516
 Alpha virt. eigenvalues --    1.54073   1.58506   1.60138   1.62015   1.64367
 Alpha virt. eigenvalues --    1.65298   1.67904   1.79851   1.80994   1.84057
 Alpha virt. eigenvalues --    1.90133   1.97648   2.01189   2.03617   2.17814
 Alpha virt. eigenvalues --    2.18567   2.19841   2.26551   2.27081   2.30046
 Alpha virt. eigenvalues --    2.41096   2.48058   2.53242   2.55655   2.61728
 Alpha virt. eigenvalues --    2.62472   2.69564   2.71549   2.75201   2.78154
 Alpha virt. eigenvalues --    2.79250   2.82827   2.87091   2.96329   3.00772
 Alpha virt. eigenvalues --    3.05240   3.14135   3.15199   3.18571   3.22346
 Alpha virt. eigenvalues --    3.23396   3.26278   3.27882   3.34810   3.39563
 Alpha virt. eigenvalues --    3.45984   3.54320   3.57198   3.60106   3.64962
 Alpha virt. eigenvalues --    3.67661   3.71397   3.71732   3.73328   3.75229
 Alpha virt. eigenvalues --    3.78304   3.92720   4.02033   4.03108   4.08868
 Alpha virt. eigenvalues --    4.13942   4.14559   4.21448   4.32372   4.32658
 Alpha virt. eigenvalues --    4.39444   4.42754   4.52783   4.55967   4.56299
 Alpha virt. eigenvalues --    4.62538   4.64195   4.64689   4.66805   4.77937
 Alpha virt. eigenvalues --    4.78860   4.92436   4.96869   4.97614   4.97921
 Alpha virt. eigenvalues --    4.98676   5.03538   5.04571   5.09497   5.12486
 Alpha virt. eigenvalues --    5.13373   5.14071   5.15320   5.16827   5.19702
 Alpha virt. eigenvalues --    5.20723   5.21495   5.31572   5.33000   5.34961
 Alpha virt. eigenvalues --    5.41389   5.48402   5.48656   5.52447   5.54882
 Alpha virt. eigenvalues --    5.59773   5.76459   5.83078   5.87297   5.92852
 Alpha virt. eigenvalues --    6.23538   6.24394   6.32947   6.64704   6.65587
 Alpha virt. eigenvalues --    6.70409   6.75218   6.79027   6.83703   6.84036
 Alpha virt. eigenvalues --    6.85882   6.89052   6.90287   6.94090   7.01743
 Alpha virt. eigenvalues --    7.06297   7.12602   7.21866   7.22136   7.27683
 Alpha virt. eigenvalues --    7.30018   7.43386   7.45622   7.63736   7.72779
 Alpha virt. eigenvalues --    7.74223   7.82075   8.03023  24.13143  24.86509
 Alpha virt. eigenvalues --   49.89273  49.92601  50.01161  50.08719
  Beta  occ. eigenvalues --  -19.75810 -19.71517 -19.70972 -19.69140 -10.60054
  Beta  occ. eigenvalues --  -10.52567  -1.31226  -1.27041  -1.04970  -0.95765
  Beta  occ. eigenvalues --   -0.84634  -0.68637  -0.64812  -0.60023  -0.58337
  Beta  occ. eigenvalues --   -0.56260  -0.54875  -0.50469  -0.47165  -0.44994
  Beta  occ. eigenvalues --   -0.44204  -0.39331  -0.37778  -0.30224
  Beta virt. eigenvalues --   -0.08624   0.02426   0.03218   0.04000   0.04701
  Beta virt. eigenvalues --    0.04969   0.05932   0.07474   0.09614   0.10434
  Beta virt. eigenvalues --    0.10728   0.12539   0.14459   0.15677   0.16383
  Beta virt. eigenvalues --    0.17927   0.18910   0.20427   0.21014   0.21934
  Beta virt. eigenvalues --    0.22386   0.23301   0.23879   0.25029   0.26052
  Beta virt. eigenvalues --    0.28220   0.28518   0.29202   0.31241   0.34011
  Beta virt. eigenvalues --    0.36056   0.36591   0.39585   0.40437   0.43963
  Beta virt. eigenvalues --    0.47013   0.50106   0.52742   0.53951   0.54337
  Beta virt. eigenvalues --    0.56608   0.58693   0.62629   0.63953   0.67009
  Beta virt. eigenvalues --    0.68531   0.68761   0.71849   0.75550   0.77403
  Beta virt. eigenvalues --    0.78384   0.79607   0.80279   0.83625   0.86240
  Beta virt. eigenvalues --    0.87633   0.90964   0.93153   0.94772   0.97621
  Beta virt. eigenvalues --    1.02994   1.03622   1.05417   1.07107   1.08622
  Beta virt. eigenvalues --    1.09496   1.11560   1.12278   1.15922   1.17307
  Beta virt. eigenvalues --    1.19908   1.21266   1.23046   1.24919   1.28333
  Beta virt. eigenvalues --    1.30232   1.33259   1.33497   1.36817   1.37998
  Beta virt. eigenvalues --    1.40564   1.42276   1.43901   1.49756   1.51993
  Beta virt. eigenvalues --    1.52738   1.54634   1.59539   1.60571   1.64119
  Beta virt. eigenvalues --    1.64570   1.65432   1.68191   1.79859   1.82253
  Beta virt. eigenvalues --    1.84103   1.90149   1.97652   2.01403   2.04496
  Beta virt. eigenvalues --    2.18877   2.19591   2.19999   2.26636   2.27211
  Beta virt. eigenvalues --    2.30052   2.41097   2.48107   2.53422   2.56047
  Beta virt. eigenvalues --    2.61823   2.62480   2.69568   2.71556   2.75204
  Beta virt. eigenvalues --    2.78155   2.79253   2.82827   2.87091   2.96330
  Beta virt. eigenvalues --    3.00771   3.05245   3.14136   3.15199   3.18575
  Beta virt. eigenvalues --    3.22347   3.23401   3.26279   3.27885   3.34810
  Beta virt. eigenvalues --    3.39564   3.45993   3.54331   3.57578   3.60108
  Beta virt. eigenvalues --    3.64971   3.67670   3.71573   3.71817   3.73329
  Beta virt. eigenvalues --    3.75280   3.78308   3.92718   4.01982   4.02980
  Beta virt. eigenvalues --    4.08869   4.13948   4.14563   4.21444   4.32373
  Beta virt. eigenvalues --    4.32659   4.39532   4.46002   4.52784   4.56296
  Beta virt. eigenvalues --    4.56418   4.62540   4.64748   4.65490   4.66809
  Beta virt. eigenvalues --    4.78659   4.78869   4.92440   4.96895   5.00127
  Beta virt. eigenvalues --    5.01163   5.02376   5.04506   5.08992   5.10477
  Beta virt. eigenvalues --    5.13672   5.14220   5.14445   5.15690   5.17203
  Beta virt. eigenvalues --    5.19860   5.20768   5.22070   5.31575   5.34361
  Beta virt. eigenvalues --    5.34978   5.41390   5.48404   5.49806   5.52449
  Beta virt. eigenvalues --    5.54885   5.60337   5.76459   5.83079   5.87302
  Beta virt. eigenvalues --    5.92853   6.25068   6.26430   6.32951   6.65008
  Beta virt. eigenvalues --    6.74059   6.79024   6.80042   6.81341   6.84091
  Beta virt. eigenvalues --    6.85877   6.89008   6.89233   6.92864   6.96313
  Beta virt. eigenvalues --    7.01760   7.06300   7.12603   7.22984   7.27531
  Beta virt. eigenvalues --    7.27811   7.30033   7.43388   7.45640   7.63737
  Beta virt. eigenvalues --    7.72780   7.75921   7.82560   8.03030  24.13143
  Beta virt. eigenvalues --   24.86509  49.88815  49.92124  50.01161  50.08719
          Condensed to atoms (all electrons):
               1          2          3          4          5          6
     1  C    5.115267   0.498688   0.388478   0.399327  -0.113008  -0.003678
     2  C    0.498688   5.121218  -0.017146  -0.026075   0.190053   0.411544
     3  H    0.388478  -0.017146   0.512168  -0.022725   0.006012  -0.005702
     4  H    0.399327  -0.026075  -0.022725   0.470983  -0.007751   0.003787
     5  O   -0.113008   0.190053   0.006012  -0.007751   7.937354  -0.050011
     6  H   -0.003678   0.411544  -0.005702   0.003787  -0.050011   0.480008
     7  O    0.013576  -0.061999   0.000815  -0.000398   0.180175   0.004524
     8  H    0.023674  -0.017829   0.000020  -0.001172  -0.038239  -0.000335
     9  O    0.010820  -0.007465   0.000443  -0.000620   0.000734  -0.000058
    10  O    0.002475   0.001402  -0.000105   0.000538  -0.000075   0.000001
    11  H   -0.000346  -0.000165   0.000004  -0.000023  -0.000003  -0.000000
               7          8          9         10         11
     1  C    0.013576   0.023674   0.010820   0.002475  -0.000346
     2  C   -0.061999  -0.017829  -0.007465   0.001402  -0.000165
     3  H    0.000815   0.000020   0.000443  -0.000105   0.000004
     4  H   -0.000398  -0.001172  -0.000620   0.000538  -0.000023
     5  O    0.180175  -0.038239   0.000734  -0.000075  -0.000003
     6  H    0.004524  -0.000335  -0.000058   0.000001  -0.000000
     7  O    7.829734   0.234385   0.002511   0.000348  -0.000034
     8  H    0.234385   0.548546   0.003392  -0.000331   0.000027
     9  O    0.002511   0.003392   8.013279   0.181951  -0.043672
    10  O    0.000348  -0.000331   0.181951   7.711168   0.220923
    11  H   -0.000034   0.000027  -0.043672   0.220923   0.536950
          Atomic-Atomic Spin Densities.
               1          2          3          4          5          6
     1  C    0.002828  -0.002137  -0.000142   0.000179   0.000537  -0.000024
     2  C   -0.002137   0.001767   0.000100   0.000486  -0.000396   0.000115
     3  H   -0.000142   0.000100  -0.000124   0.000076   0.000023   0.000007
     4  H    0.000179   0.000486   0.000076  -0.001747   0.000108  -0.000010
     5  O    0.000537  -0.000396   0.000023   0.000108   0.000222  -0.000010
     6  H   -0.000024   0.000115   0.000007  -0.000010  -0.000010  -0.000021
     7  O   -0.001025   0.000724  -0.000018   0.000146  -0.000790  -0.000058
     8  H    0.000403  -0.000265   0.000000   0.000031   0.000058   0.000010
     9  O    0.001537  -0.000791   0.000014  -0.001271   0.000080   0.000001
    10  O   -0.000018   0.000150  -0.000007   0.000130   0.000020   0.000001
    11  H    0.000042  -0.000012  -0.000001  -0.000004  -0.000000   0.000000
               7          8          9         10         11
     1  C   -0.001025   0.000403   0.001537  -0.000018   0.000042
     2  C    0.000724  -0.000265  -0.000791   0.000150  -0.000012
     3  H   -0.000018   0.000000   0.000014  -0.000007  -0.000001
     4  H    0.000146   0.000031  -0.001271   0.000130  -0.000004
     5  O   -0.000790   0.000058   0.000080   0.000020  -0.000000
     6  H   -0.000058   0.000010   0.000001   0.000001   0.000000
     7  O    0.002052  -0.000535  -0.000314   0.000080  -0.000001
     8  H   -0.000535   0.000279  -0.000006  -0.000050  -0.000002
     9  O   -0.000314  -0.000006   0.905267  -0.146178   0.000947
    10  O    0.000080  -0.000050  -0.146178   0.390641   0.005623
    11  H   -0.000001  -0.000002   0.000947   0.005623  -0.016289
 Mulliken charges and spin densities:
               1          2
     1  C   -0.335273   0.002179
     2  C   -0.092225  -0.000260
     3  H    0.137737  -0.000071
     4  H    0.184129  -0.001875
     5  O   -0.105241  -0.000148
     6  H    0.159920   0.000010
     7  O   -0.203638   0.000260
     8  H    0.247862  -0.000077
     9  O   -0.161317   0.759287
    10  O   -0.118295   0.250391
    11  H    0.286340  -0.009697
 Sum of Mulliken charges =  -0.00000   1.00000
 Mulliken charges and spin densities with hydrogens summed into heavy atoms:
               1          2
     1  C   -0.013407   0.000233
     2  C    0.067695  -0.000249
     5  O   -0.105241  -0.000148
     7  O    0.044225   0.000183
     9  O   -0.161317   0.759287
    10  O    0.168045   0.240694
 Electronic spatial extent (au):  <R**2>=           1042.8056
 Charge=             -0.0000 electrons
 Dipole moment (field-independent basis, Debye):
    X=             -3.2510    Y=              1.2220    Z=              0.9762  Tot=              3.6076
 Quadrupole moment (field-independent basis, Debye-Ang):
   XX=            -20.1800   YY=            -35.8176   ZZ=            -36.5394
   XY=              4.1224   XZ=              2.0471   YZ=             -2.5288
 Traceless Quadrupole moment (field-independent basis, Debye-Ang):
   XX=             10.6657   YY=             -4.9719   ZZ=             -5.6938
   XY=              4.1224   XZ=              2.0471   YZ=             -2.5288
 Octapole moment (field-independent basis, Debye-Ang**2):
  XXX=            -90.0211  YYY=             -2.8324  ZZZ=              1.9625  XYY=             -3.8019
  XXY=              7.7474  XXZ=             -5.7826  XZZ=             -5.0801  YZZ=             -7.1063
  YYZ=              2.3344  XYZ=              1.1477
 Hexadecapole moment (field-independent basis, Debye-Ang**3):
 XXXX=           -557.1930 YYYY=           -226.4186 ZZZZ=            -44.4966 XXXY=             23.5539
 XXXZ=             24.3562 YYYX=             -0.5906 YYYZ=             -4.4335 ZZZX=              1.7043
 ZZZY=             -1.3779 XXYY=           -201.2913 XXZZ=           -173.8351 YYZZ=            -48.9902
 XXYZ=             -2.8957 YYXZ=              0.6071 ZZXY=             -7.9714
 N-N= 2.177380693488D+02 E-N=-1.330348677674D+03  KE= 3.784942724398D+02
                          Isotropic Fermi Contact Couplings
        Atom                 a.u.       MegaHertz       Gauss      10(-4) cm-1
     1  C(13)             -0.00016      -0.17992      -0.06420      -0.06002
     2  C(13)             -0.00001      -0.00600      -0.00214      -0.00200
     3  H(1)               0.00000       0.00389       0.00139       0.00130
     4  H(1)               0.00005       0.21508       0.07674       0.07174
     5  O(17)              0.00003      -0.01572      -0.00561      -0.00525
     6  H(1)               0.00002       0.09341       0.03333       0.03116
     7  O(17)             -0.00039       0.23695       0.08455       0.07904
     8  H(1)               0.00000       0.01158       0.00413       0.00386
     9  O(17)              0.11092     -67.24140     -23.99341     -22.42932
    10  O(17)              0.06239     -37.82200     -13.49583     -12.61606
    11  H(1)              -0.00629     -28.10326     -10.02794      -9.37424
 --------------------------------------------------------
       Center         ----  Spin Dipole Couplings  ----
                      3XX-RR        3YY-RR        3ZZ-RR
 --------------------------------------------------------
     1   Atom        0.003745     -0.000994     -0.002750
     2   Atom        0.002647     -0.001261     -0.001386
     3   Atom        0.001327      0.000466     -0.001792
     4   Atom        0.010046     -0.002812     -0.007234
     5   Atom        0.002273     -0.001340     -0.000933
     6   Atom        0.001382     -0.000598     -0.000784
     7   Atom        0.005556     -0.003017     -0.002539
     8   Atom        0.005731     -0.003092     -0.002639
     9   Atom       -1.561356      0.718903      0.842452
    10   Atom       -0.681321      0.301049      0.380272
    11   Atom        0.054220     -0.031044     -0.023176
 --------------------------------------------------------
                        XY            XZ            YZ
 --------------------------------------------------------
     1   Atom        0.003511      0.000895      0.000528
     2   Atom        0.001000      0.000067      0.000135
     3   Atom        0.002589      0.000115      0.000120
     4   Atom        0.008836      0.001397      0.000752
     5   Atom       -0.000000      0.000020     -0.000342
     6   Atom        0.000658      0.000136      0.000050
     7   Atom       -0.001738      0.000199     -0.000149
     8   Atom       -0.002432      0.003181     -0.000856
     9   Atom        0.440276     -0.424109     -2.398460
    10   Atom        0.224796     -0.162453     -1.126735
    11   Atom        0.015097      0.028548     -0.001755
 --------------------------------------------------------


 ---------------------------------------------------------------------------------
              Anisotropic Spin Dipole Couplings in Principal Axis System
 ---------------------------------------------------------------------------------

       Atom             a.u.   MegaHertz   Gauss  10(-4) cm-1        Axes

              Baa    -0.0029    -0.391    -0.140    -0.131  0.2193 -0.6101  0.7614
     1 C(13)  Bbb    -0.0028    -0.379    -0.135    -0.126 -0.4292  0.6405  0.6368
              Bcc     0.0057     0.770     0.275     0.257  0.8762  0.4665  0.1214
 
              Baa    -0.0016    -0.211    -0.075    -0.070 -0.1879  0.8285 -0.5276
     2 C(13)  Bbb    -0.0013    -0.177    -0.063    -0.059 -0.1427  0.5084  0.8492
              Bcc     0.0029     0.388     0.138     0.129  0.9718  0.2349  0.0226
 
              Baa    -0.0018    -0.961    -0.343    -0.321  0.1250 -0.1942  0.9730
     3 H(1)   Bbb    -0.0017    -0.920    -0.328    -0.307 -0.6348  0.7380  0.2289
              Bcc     0.0035     1.881     0.671     0.628  0.7625  0.6463  0.0310
 
              Baa    -0.0074    -3.933    -1.403    -1.312  0.1769 -0.4842  0.8569
     4 H(1)   Bbb    -0.0073    -3.889    -1.388    -1.297 -0.4228  0.7488  0.5104
              Bcc     0.0147     7.822     2.791     2.609  0.8888  0.4526  0.0723
 
              Baa    -0.0015     0.111     0.040     0.037 -0.0026  0.8691  0.4946
     5 O(17)  Bbb    -0.0007     0.053     0.019     0.018 -0.0059 -0.4946  0.8691
              Bcc     0.0023    -0.165    -0.059    -0.055  1.0000 -0.0007  0.0064
 
              Baa    -0.0008    -0.429    -0.153    -0.143 -0.1888  0.7573 -0.6252
     6 H(1)   Bbb    -0.0008    -0.419    -0.150    -0.140 -0.2266  0.5859  0.7781
              Bcc     0.0016     0.848     0.303     0.283  0.9555  0.2886  0.0610
 
              Baa    -0.0034     0.244     0.087     0.081  0.1867  0.9737  0.1303
     7 O(17)  Bbb    -0.0025     0.183     0.065     0.061 -0.0508 -0.1229  0.9911
              Bcc     0.0059    -0.427    -0.152    -0.142  0.9811 -0.1917  0.0265
 
              Baa    -0.0038    -2.002    -0.714    -0.668 -0.0299  0.7490  0.6618
     8 H(1)   Bbb    -0.0037    -1.965    -0.701    -0.655 -0.3902 -0.6184  0.6822
              Bcc     0.0074     3.967     1.415     1.323  0.9202 -0.2379  0.3108
 
              Baa    -1.6504   119.419    42.612    39.834  0.8498 -0.4446 -0.2831
     9 O(17)  Bbb    -1.6070   116.285    41.493    38.788  0.5118  0.5679  0.6446
              Bcc     3.2574  -235.704   -84.105   -78.622 -0.1258 -0.6928  0.7101
 
              Baa    -0.8113    58.707    20.948    19.583 -0.4483  0.6792  0.5811
    10 O(17)  Bbb    -0.6909    49.994    17.839    16.676  0.8852  0.2470  0.3941
              Bcc     1.5022  -108.701   -38.787   -36.259 -0.1241 -0.6911  0.7120
 
              Baa    -0.0391   -20.872    -7.447    -6.962 -0.3080  0.7129  0.6300
    11 H(1)   Bbb    -0.0265   -14.123    -5.039    -4.711 -0.1248 -0.6868  0.7160
              Bcc     0.0656    34.995    12.487    11.673  0.9432  0.1419  0.3005
 

 ---------------------------------------------------------------------------------

 Calling FoFJK, ICntrl=      2127 FMM=F ISym2X=0 I1Cent= 0 IOpClX= 1 NMat=1 NMatS=1 NMatT=0.
 ***** Axes restored to original set *****
 -------------------------------------------------------------------
 Center     Atomic                   Forces (Hartrees/Bohr)
 Number     Number              X              Y              Z
 -------------------------------------------------------------------
      1        6          -0.005910472   -0.005363483   -0.000806965
      2        6           0.004071530   -0.001003169   -0.000740486
      3        1          -0.001474082   -0.004003212   -0.000256505
      4        1          -0.002495123    0.002001468    0.000569498
      5        8           0.019206272   -0.002779510    0.003750336
      6        1           0.003464939   -0.001090597    0.000639353
      7        8          -0.012268506    0.013812761   -0.012305509
      8        1          -0.003980454   -0.001377358    0.009601907
      9        8           0.014547805    0.013260555   -0.010833076
     10        8          -0.004676359   -0.016636365    0.015068597
     11        1          -0.010485550    0.003178909   -0.004687150
 -------------------------------------------------------------------
 Cartesian Forces:  Max     0.019206272 RMS     0.008331774

 GradGradGradGradGradGradGradGradGradGradGradGradGradGradGradGradGradGrad
 Berny optimization.
 FormGI is forming the generalized inverse of G from B-inverse, IUseBI=4.
 Internal  Forces:  Max     0.022852735 RMS     0.007007770
 Search for a local minimum.
 Step number   1 out of a maximum of  100
 All quantities printed in internal units (Hartrees-Bohrs-Radians)
 Mixed Optimization -- RFO/linear search
 Second derivative matrix not updated -- first step.
 ITU=  0
     Eigenvalues ---    0.00230   0.00230   0.00230   0.00717   0.01976
     Eigenvalues ---    0.02063   0.02200   0.02250   0.02749   0.03001
     Eigenvalues ---    0.15998   0.16000   0.16000   0.16000   0.16000
     Eigenvalues ---    0.16000   0.22001   0.25000   0.35088   0.35569
     Eigenvalues ---    0.35664   0.39086   0.50602   0.50631   0.51735
     Eigenvalues ---    0.59128   0.59269
 RFO step:  Lambda=-4.74728740D-03 EMin= 2.30000000D-03
 Linear search not attempted -- first point.
 Maximum step size (   0.300) exceeded in Quadratic search.
    -- Step size scaled by   0.654
 Iteration  1 RMS(Cart)=  0.21231427 RMS(Int)=  0.01769507
 Iteration  2 RMS(Cart)=  0.08886939 RMS(Int)=  0.00134420
 Iteration  3 RMS(Cart)=  0.00233561 RMS(Int)=  0.00015298
 Iteration  4 RMS(Cart)=  0.00000048 RMS(Int)=  0.00015298
 Variable       Old X    -DE/DX   Delta X   Delta X   Delta X     New X
                                 (Linear)    (Quad)   (Total)
    R1        2.51523  -0.01284   0.00000  -0.01405  -0.01405   2.50118
    R2        2.04761  -0.00405   0.00000  -0.00734  -0.00734   2.04027
    R3        2.04610  -0.00353   0.00000  -0.00639  -0.00640   2.03971
    R4        2.59262  -0.01012   0.00000  -0.01295  -0.01295   2.57968
    R5        2.05533  -0.00359   0.00000  -0.00661  -0.00661   2.04872
    R6        4.79556  -0.00041   0.00000  -0.01085  -0.01085   4.78471
    R7        2.72815  -0.02060   0.00000  -0.03405  -0.03405   2.69409
    R8        1.84854  -0.01045   0.00000  -0.01309  -0.01309   1.83545
    R9        2.51637  -0.02285   0.00000  -0.02507  -0.02507   2.49130
   R10        1.85934  -0.01189   0.00000  -0.01522  -0.01522   1.84413
    A1        2.07893  -0.00072   0.00000  -0.00288  -0.00290   2.07603
    A2        2.12781  -0.00130   0.00000  -0.00515  -0.00514   2.12266
    A3        2.07644   0.00202   0.00000   0.00800   0.00801   2.08444
    A4        2.23851  -0.00422   0.00000  -0.01223  -0.01223   2.22628
    A5        2.17445   0.00136   0.00000   0.00320   0.00319   2.17764
    A6        1.86993   0.00287   0.00000   0.00920   0.00919   1.87911
    A7        1.94029  -0.00430   0.00000  -0.01102  -0.01102   1.92927
    A8        1.77260   0.00123   0.00000   0.00488   0.00488   1.77747
    A9        1.82080   0.00046   0.00000   0.00184   0.00184   1.82263
   A10        1.83232  -0.00000   0.00000  -0.00001  -0.00001   1.83232
   A11        3.14190  -0.00307   0.00000  -0.28497  -0.28496   2.85694
   A12        3.14121  -0.00085   0.00000  -0.07398  -0.07434   3.06687
    D1        3.11782   0.00034   0.00000   0.00743   0.00716   3.12498
    D2        0.00570  -0.00008   0.00000  -0.00123  -0.00148   0.00422
    D3       -0.02960   0.00013   0.00000   0.00220   0.00240  -0.02720
    D4        3.14147  -0.00029   0.00000  -0.00646  -0.00624   3.13522
    D5        2.56959  -0.00014   0.00000  -0.01905  -0.01860   2.55099
    D6       -0.57750   0.00026   0.00000   0.02992   0.02947  -0.54803
    D7        0.09806  -0.00016   0.00000  -0.00310  -0.00312   0.09494
    D8       -3.06892   0.00020   0.00000   0.00435   0.00431  -3.06461
    D9       -1.35398   0.00022   0.00000   0.01210   0.01210  -1.34188
   D10        2.69504  -0.00024   0.00000  -0.00599  -0.00599   2.68905
         Item               Value     Threshold  Converged?
 Maximum Force            0.022853     0.002500     NO 
 RMS     Force            0.007008     0.001667     NO 
 Maximum Displacement     0.642159     0.010000     NO 
 RMS     Displacement     0.299005     0.006667     NO 
 Predicted change in Energy=-2.306576D-03
 GradGradGradGradGradGradGradGradGradGradGradGradGradGradGradGradGradGrad

                          Input orientation:                          
 ---------------------------------------------------------------------
 Center     Atomic      Atomic             Coordinates (Angstroms)
 Number     Number       Type             X           Y           Z
 ---------------------------------------------------------------------
      1          6           0       -0.899592    1.500688    0.128898
      2          6           0       -1.970757    0.738813   -0.025961
      3          1           0       -1.021484    2.572898    0.163343
      4          1           0        0.087289    1.075565    0.230740
      5          8           0       -2.018194   -0.622841   -0.110584
      6          1           0       -2.984242    1.110232   -0.127192
      7          8           0       -0.727259   -1.183402    0.116889
      8          1           0       -0.284144   -1.013756   -0.730611
      9          8           0        2.044412   -0.530766    0.244779
     10          8           0        3.027252    0.143982   -0.318033
     11          1           0        3.843460   -0.251694    0.041922
 ---------------------------------------------------------------------
                    Distance matrix (angstroms):
                    1          2          3          4          5
     1  C    0.000000
     2  C    1.323567   0.000000
     3  H    1.079666   2.073843   0.000000
     4  H    1.079368   2.101155   1.864384   0.000000
     5  O    2.412052   1.365106   3.358752   2.726562   0.000000
     6  H    2.136306   1.084137   2.464999   3.092511   1.984205
     7  O    2.689643   2.293818   3.768092   2.404034   1.425652
     8  H    2.727629   2.532330   3.769206   2.329682   1.882598
     9  O    3.578742   4.219801   4.363380   2.531961   4.079158
    10  O    4.178577   5.041749   4.745906   3.132473   5.107600
    11  H    5.057168   5.898375   5.626788   3.988244   5.875372
                    6          7          8          9         10
     6  H    0.000000
     7  O    3.227120   0.000000
     8  H    3.487975   0.971281   0.000000
     9  O    5.302698   2.850342   2.570377   0.000000
    10  O    6.091644   4.005928   3.532127   1.318338   0.000000
    11  H    6.964263   4.665316   4.267863   1.831831   0.975870
                   11
    11  H    0.000000
 Stoichiometry    C2H5O4(2)
 Framework group  C1[X(C2H5O4)]
 Deg. of freedom    27
 Full point group                 C1      NOp   1
 Largest Abelian subgroup         C1      NOp   1
 Largest concise Abelian subgroup C1      NOp   1
                         Standard orientation:                         
 ---------------------------------------------------------------------
 Center     Atomic      Atomic             Coordinates (Angstroms)
 Number     Number       Type             X           Y           Z
 ---------------------------------------------------------------------
      1          6           0        1.033424    1.440125   -0.117573
      2          6           0        2.042250    0.599163    0.046389
      3          1           0        1.236059    2.500240   -0.145410
      4          1           0        0.018676    1.090915   -0.233218
      5          8           0        1.986058   -0.762517    0.125029
      6          1           0        3.079492    0.892821    0.161483
      7          8           0        0.659490   -1.223396   -0.120514
      8          1           0        0.220043   -1.024168    0.722446
      9          8           0       -2.053443   -0.363428   -0.278313
     10          8           0       -2.989551    0.381210    0.275972
     11          1           0       -3.828744    0.049518   -0.095588
 ---------------------------------------------------------------------
 Rotational constants (GHZ):           6.3354614           1.3546381           1.1347874
 Standard basis: 6-311+G(2df,2p) (5D, 7F)
 There are   279 symmetry adapted cartesian basis functions of A   symmetry.
 There are   249 symmetry adapted basis functions of A   symmetry.
   249 basis functions,   367 primitive gaussians,   279 cartesian basis functions
    25 alpha electrons       24 beta electrons
       nuclear repulsion energy       224.7872495725 Hartrees.
 NAtoms=   11 NActive=   11 NUniq=   11 SFac= 1.00D+00 NAtFMM=   60 NAOKFM=F Big=F
 Integral buffers will be    131072 words long.
 Raffenetti 2 integral format.
 Two-electron integral symmetry is turned on.
 One-electron integrals computed using PRISM.
 NBasis=   249 RedAO= T EigKep=  7.59D-05  NBF=   249
 NBsUse=   249 1.00D-06 EigRej= -1.00D+00 NBFU=   249
 Initial guess from the checkpoint file:  "/scratch/dinius.ab/QMscratch/Gau-24724.chk"
 B after Tr=     0.000000   -0.000000   -0.000000
         Rot=    0.999334   -0.008051    0.002819    0.035465 Ang=  -4.18 deg.
 Initial guess <Sx>= 0.0000 <Sy>= 0.0000 <Sz>= 0.5000 <S**2>= 0.7552 S= 0.5026
 ExpMin= 4.38D-02 ExpMax= 8.59D+03 ExpMxC= 1.30D+03 IAcc=2 IRadAn=         4 AccDes= 0.00D+00
 Harris functional with IExCor= 1009 and IRadAn=       4 diagonalized for initial guess.
 HarFok:  IExCor= 1009 AccDes= 0.00D+00 IRadAn=         4 IDoV= 1 UseB2=F ITyADJ=14
 ICtDFT=  3500011 ScaDFX=  1.000000  1.000000  1.000000  1.000000
 FoFCou: FMM=F IPFlag=           0 FMFlag=      100000 FMFlg1=           0
         NFxFlg=           0 DoJE=T BraDBF=F KetDBF=T FulRan=T
         wScrn=  0.000000 ICntrl=       500 IOpCl=  0 I1Cent=   200000004 NGrid=           0
         NMat0=    1 NMatS0=      1 NMatT0=    0 NMatD0=    1 NMtDS0=    0 NMtDT0=    0
 Petite list used in FoFCou.
 Requested convergence on RMS density matrix=1.00D-08 within 128 cycles.
 Requested convergence on MAX density matrix=1.00D-06.
 Requested convergence on             energy=1.00D-06.
 No special actions if energy rises.
 SCF Done:  E(UM062X) =  -379.828854273     A.U. after   17 cycles
            NFock= 17  Conv=0.74D-08     -V/T= 2.0031
 <Sx>= 0.0000 <Sy>= 0.0000 <Sz>= 0.5000 <S**2>= 0.7552 S= 0.5026
 <L.S>= 0.000000000000E+00
 Annihilation of the first spin contaminant:
 S**2 before annihilation     0.7552,   after     0.7500
 Calling FoFJK, ICntrl=      2127 FMM=F ISym2X=0 I1Cent= 0 IOpClX= 1 NMat=1 NMatS=1 NMatT=0.
 ***** Axes restored to original set *****
 -------------------------------------------------------------------
 Center     Atomic                   Forces (Hartrees/Bohr)
 Number     Number              X              Y              Z
 -------------------------------------------------------------------
      1        6          -0.000536717   -0.000593646   -0.000333520
      2        6          -0.001303439   -0.002904874   -0.000941072
      3        1          -0.000310903   -0.001248373   -0.000195963
      4        1          -0.000465838    0.001414813    0.000942092
      5        8           0.010093745   -0.000160994    0.003301539
      6        1           0.001367015    0.000835451    0.000300155
      7        8          -0.009778312    0.003637867   -0.006054623
      8        1           0.000854661   -0.000841256    0.003978159
      9        8           0.007391925    0.006107031   -0.006315540
     10        8          -0.004594230   -0.009003123    0.007088427
     11        1          -0.002717906    0.002757105   -0.001769654
 -------------------------------------------------------------------
 Cartesian Forces:  Max     0.010093745 RMS     0.004253927

 GradGradGradGradGradGradGradGradGradGradGradGradGradGradGradGradGradGrad
 Berny optimization.
 Using GEDIIS/GDIIS optimizer.
 FormGI is forming the generalized inverse of G from B-inverse, IUseBI=4.
 Internal  Forces:  Max     0.010915447 RMS     0.003140176
 Search for a local minimum.
 Step number   2 out of a maximum of  100
 All quantities printed in internal units (Hartrees-Bohrs-Radians)
 Mixed Optimization -- RFO/linear search
 Update second derivatives using D2CorX and points    1    2
 DE= -2.14D-03 DEPred=-2.31D-03 R= 9.29D-01
 TightC=F SS=  1.41D+00  RLast= 3.03D-01 DXNew= 5.0454D-01 9.0774D-01
 Trust test= 9.29D-01 RLast= 3.03D-01 DXMaxT set to 5.05D-01
 ITU=  1  0
 Use linear search instead of GDIIS.
     Eigenvalues ---    0.00170   0.00230   0.00408   0.00729   0.01971
     Eigenvalues ---    0.02055   0.02191   0.02243   0.02751   0.03012
     Eigenvalues ---    0.14808   0.15990   0.15999   0.16000   0.16000
     Eigenvalues ---    0.16280   0.22686   0.25501   0.35156   0.35434
     Eigenvalues ---    0.35671   0.35949   0.50150   0.50817   0.51618
     Eigenvalues ---    0.55490   0.62927
 RFO step:  Lambda=-4.17456335D-03 EMin= 1.70457463D-03
 Quartic linear search produced a step of  0.54651.
 Maximum step size (   0.505) exceeded in Quadratic search.
    -- Step size scaled by   0.961
 Iteration  1 RMS(Cart)=  0.26958624 RMS(Int)=  0.06906089
 Iteration  2 RMS(Cart)=  0.15732763 RMS(Int)=  0.01998888
 Iteration  3 RMS(Cart)=  0.06242796 RMS(Int)=  0.00124703
 Iteration  4 RMS(Cart)=  0.00183606 RMS(Int)=  0.00033081
 Iteration  5 RMS(Cart)=  0.00000071 RMS(Int)=  0.00033081
 Variable       Old X    -DE/DX   Delta X   Delta X   Delta X     New X
                                 (Linear)    (Quad)   (Total)
    R1        2.50118  -0.00138  -0.00768  -0.01317  -0.02089   2.48029
    R2        2.04027  -0.00121  -0.00401  -0.00977  -0.01378   2.02650
    R3        2.03971  -0.00084  -0.00350  -0.00768  -0.01114   2.02857
    R4        2.57968  -0.00274  -0.00708  -0.01653  -0.02359   2.55608
    R5        2.04872  -0.00102  -0.00361  -0.00858  -0.01219   2.03653
    R6        4.78471   0.00013  -0.00593   0.00290  -0.00307   4.78165
    R7        2.69409  -0.00953  -0.01861  -0.05696  -0.07551   2.61859
    R8        1.83545  -0.00323  -0.00715  -0.01774  -0.02490   1.81056
    R9        2.49130  -0.01092  -0.01370  -0.04284  -0.05654   2.43475
   R10        1.84413  -0.00404  -0.00832  -0.02162  -0.02993   1.81420
    A1        2.07603  -0.00110  -0.00158  -0.01110  -0.01226   2.06376
    A2        2.12266   0.00132  -0.00281   0.00746   0.00450   2.12717
    A3        2.08444  -0.00022   0.00437   0.00368   0.00777   2.09222
    A4        2.22628   0.00119  -0.00669  -0.00129  -0.00810   2.21818
    A5        2.17764  -0.00190   0.00174  -0.01221  -0.01044   2.16721
    A6        1.87911   0.00072   0.00502   0.01362   0.01867   1.89778
    A7        1.92927   0.00356  -0.00602   0.01137   0.00531   1.93458
    A8        1.77747   0.00451   0.00267   0.04069   0.04335   1.82082
    A9        1.82263   0.00060   0.00100   0.00624   0.00725   1.82988
   A10        1.83232   0.00227  -0.00000   0.01880   0.01879   1.85111
   A11        2.85694  -0.00052  -0.15573  -0.01693  -0.17266   2.68428
   A12        3.06687  -0.00245  -0.04063  -0.49356  -0.53343   2.53344
    D1        3.12498   0.00067   0.00391   0.02953   0.03398  -3.12422
    D2        0.00422   0.00056  -0.00081   0.02087   0.02059   0.02481
    D3       -0.02720   0.00082   0.00131   0.03424   0.03516   0.00796
    D4        3.13522   0.00071  -0.00341   0.02558   0.02176  -3.12620
    D5        2.55099  -0.00076  -0.01017  -0.15003  -0.16112   2.38987
    D6       -0.54803   0.00122   0.01611   0.24200   0.25903  -0.28900
    D7        0.09494   0.00160  -0.00171   0.08624   0.08452   0.17946
    D8       -3.06461   0.00167   0.00235   0.09348   0.09598  -2.96863
    D9       -1.34188   0.00163   0.00661   0.19673   0.20334  -1.13854
   D10        2.68905  -0.00091  -0.00327  -0.05031  -0.05358   2.63547
         Item               Value     Threshold  Converged?
 Maximum Force            0.010915     0.002500     NO 
 RMS     Force            0.003140     0.001667     NO 
 Maximum Displacement     1.227744     0.010000     NO 
 RMS     Displacement     0.453877     0.006667     NO 
 Predicted change in Energy=-3.299755D-03
 GradGradGradGradGradGradGradGradGradGradGradGradGradGradGradGradGradGrad

                          Input orientation:                          
 ---------------------------------------------------------------------
 Center     Atomic      Atomic             Coordinates (Angstroms)
 Number     Number       Type             X           Y           Z
 ---------------------------------------------------------------------
      1          6           0       -0.915138    1.507349    0.271367
      2          6           0       -1.828159    0.702300   -0.219529
      3          1           0       -1.125178    2.558694    0.294752
      4          1           0        0.019079    1.140124    0.651793
      5          8           0       -1.760158   -0.645051   -0.317523
      6          1           0       -2.771641    1.031527   -0.623091
      7          8           0       -0.670804   -1.136082    0.384153
      8          1           0        0.089142   -0.783719   -0.080917
      9          8           0        1.765001   -0.568919   -0.006647
     10          8           0        2.752312    0.124920   -0.458111
     11          1           0        3.542284   -0.391422   -0.282057
 ---------------------------------------------------------------------
                    Distance matrix (angstroms):
                    1          2          3          4          5
     1  C    0.000000
     2  C    1.312513   0.000000
     3  H    1.072376   2.050576   0.000000
     4  H    1.073471   2.088823   1.857188   0.000000
     5  O    2.386143   1.352620   3.322960   2.700390   0.000000
     6  H    2.114962   1.077687   2.426007   3.070056   1.981762
     7  O    2.657094   2.254673   3.723683   2.393467   1.385696
     8  H    2.526198   2.429714   3.575951   2.059841   1.869525
     9  O    3.401665   3.817344   4.269185   2.530339   3.539659
    10  O    3.986657   4.622878   4.639503   3.119790   4.579848
    11  H    4.876496   5.481039   5.551675   3.953565   5.308623
                    6          7          8          9         10
     6  H    0.000000
     7  O    3.182229   0.000000
     8  H    3.431202   0.958106   0.000000
     9  O    4.850005   2.531313   1.691200   0.000000
    10  O    5.600286   3.743963   2.839080   1.288416   0.000000
    11  H    6.481260   4.329950   3.481169   1.807233   0.960031
                   11
    11  H    0.000000
 Stoichiometry    C2H5O4(2)
 Framework group  C1[X(C2H5O4)]
 Deg. of freedom    27
 Full point group                 C1      NOp   1
 Largest Abelian subgroup         C1      NOp   1
 Largest concise Abelian subgroup C1      NOp   1
                         Standard orientation:                         
 ---------------------------------------------------------------------
 Center     Atomic      Atomic             Coordinates (Angstroms)
 Number     Number       Type             X           Y           Z
 ---------------------------------------------------------------------
      1          6           0        1.090271    1.413322   -0.305738
      2          6           0        1.888195    0.519781    0.230539
      3          1           0        1.415603    2.434875   -0.329760
      4          1           0        0.137666    1.145599   -0.721922
      5          8           0        1.668262   -0.810524    0.337779
      6          1           0        2.844868    0.749037    0.670571
      7          8           0        0.561119   -1.188666   -0.404782
      8          1           0       -0.173807   -0.748778    0.024579
      9          8           0       -1.811357   -0.352533   -0.122316
     10          8           0       -2.733906    0.451487    0.280760
     11          1           0       -3.568060    0.022533    0.076199
 ---------------------------------------------------------------------
 Rotational constants (GHZ):           6.1251076           1.6270775           1.3456559
 Standard basis: 6-311+G(2df,2p) (5D, 7F)
 There are   279 symmetry adapted cartesian basis functions of A   symmetry.
 There are   249 symmetry adapted basis functions of A   symmetry.
   249 basis functions,   367 primitive gaussians,   279 cartesian basis functions
    25 alpha electrons       24 beta electrons
       nuclear repulsion energy       234.7721661258 Hartrees.
 NAtoms=   11 NActive=   11 NUniq=   11 SFac= 1.00D+00 NAtFMM=   60 NAOKFM=F Big=F
 Integral buffers will be    131072 words long.
 Raffenetti 2 integral format.
 Two-electron integral symmetry is turned on.
 One-electron integrals computed using PRISM.
 NBasis=   249 RedAO= T EigKep=  7.24D-05  NBF=   249
 NBsUse=   249 1.00D-06 EigRej= -1.00D+00 NBFU=   249
 Initial guess from the checkpoint file:  "/scratch/dinius.ab/QMscratch/Gau-24724.chk"
 B after Tr=    -0.000000    0.000000    0.000000
         Rot=    0.999841   -0.000484    0.004152    0.017315 Ang=  -2.04 deg.
 Initial guess <Sx>= 0.0000 <Sy>= 0.0000 <Sz>= 0.5000 <S**2>= 0.7551 S= 0.5025
 ExpMin= 4.38D-02 ExpMax= 8.59D+03 ExpMxC= 1.30D+03 IAcc=2 IRadAn=         4 AccDes= 0.00D+00
 Harris functional with IExCor= 1009 and IRadAn=       4 diagonalized for initial guess.
 HarFok:  IExCor= 1009 AccDes= 0.00D+00 IRadAn=         4 IDoV= 1 UseB2=F ITyADJ=14
 ICtDFT=  3500011 ScaDFX=  1.000000  1.000000  1.000000  1.000000
 FoFCou: FMM=F IPFlag=           0 FMFlag=      100000 FMFlg1=           0
         NFxFlg=           0 DoJE=T BraDBF=F KetDBF=T FulRan=T
         wScrn=  0.000000 ICntrl=       500 IOpCl=  0 I1Cent=   200000004 NGrid=           0
         NMat0=    1 NMatS0=      1 NMatT0=    0 NMatD0=    1 NMtDS0=    0 NMtDT0=    0
 Petite list used in FoFCou.
 Requested convergence on RMS density matrix=1.00D-08 within 128 cycles.
 Requested convergence on MAX density matrix=1.00D-06.
 Requested convergence on             energy=1.00D-06.
 No special actions if energy rises.
 SCF Done:  E(UM062X) =  -379.824888210     A.U. after   19 cycles
            NFock= 19  Conv=0.31D-08     -V/T= 2.0022
 <Sx>= 0.0000 <Sy>= 0.0000 <Sz>= 0.5000 <S**2>= 0.7550 S= 0.5025
 <L.S>= 0.000000000000E+00
 Annihilation of the first spin contaminant:
 S**2 before annihilation     0.7550,   after     0.7500
 Calling FoFJK, ICntrl=      2127 FMM=F ISym2X=0 I1Cent= 0 IOpClX= 1 NMat=1 NMatS=1 NMatT=0.
 ***** Axes restored to original set *****
 -------------------------------------------------------------------
 Center     Atomic                   Forces (Hartrees/Bohr)
 Number     Number              X              Y              Z
 -------------------------------------------------------------------
      1        6           0.005733118    0.006533603    0.002797666
      2        6          -0.009503429   -0.005554386   -0.003711174
      3        1           0.001014865    0.004038388   -0.000236811
      4        1           0.001518021    0.002317725    0.003756328
      5        8          -0.011367525    0.002532484   -0.005755656
      6        1          -0.002405982    0.001154952   -0.001695436
      7        8          -0.002551250   -0.013774188    0.012030272
      8        1           0.002417494    0.002511674   -0.006656310
      9        8           0.007580513   -0.006981472    0.004045923
     10        8          -0.003768780    0.013906065   -0.007817772
     11        1           0.011332954   -0.006684845    0.003242972
 -------------------------------------------------------------------
 Cartesian Forces:  Max     0.013906065 RMS     0.006533366

 GradGradGradGradGradGradGradGradGradGradGradGradGradGradGradGradGradGrad
 Berny optimization.
 Using GEDIIS/GDIIS optimizer.
 FormGI is forming the generalized inverse of G from B-inverse, IUseBI=4.
 Internal  Forces:  Max     0.055056555 RMS     0.018450236
 Search for a local minimum.
 Step number   3 out of a maximum of  100
 All quantities printed in internal units (Hartrees-Bohrs-Radians)
 Mixed Optimization -- RFO/linear search
 Update second derivatives using D2CorX and points    1    3    2
 DE=  3.97D-03 DEPred=-3.30D-03 R=-1.20D+00
 Trust test=-1.20D+00 RLast= 6.97D-01 DXMaxT set to 2.52D-01
 ITU= -1  1  0
 Use linear search instead of GDIIS.
     Eigenvalues ---    0.00134   0.00230   0.00574   0.01492   0.01906
     Eigenvalues ---    0.02167   0.02231   0.02740   0.02854   0.05321
     Eigenvalues ---    0.10805   0.15066   0.16000   0.16000   0.16018
     Eigenvalues ---    0.20053   0.23029   0.27982   0.35149   0.35353
     Eigenvalues ---    0.35660   0.43569   0.50688   0.51444   0.53626
     Eigenvalues ---    0.55763   0.83577
 RFO step:  Lambda=-1.26401616D-02 EMin= 1.34036757D-03
 Quartic linear search produced a step of -0.61999.
 Maximum step size (   0.252) exceeded in Quadratic search.
    -- Step size scaled by   0.379
 Iteration  1 RMS(Cart)=  0.25042809 RMS(Int)=  0.01445092
 Iteration  2 RMS(Cart)=  0.04446511 RMS(Int)=  0.00042822
 Iteration  3 RMS(Cart)=  0.00095878 RMS(Int)=  0.00004830
 Iteration  4 RMS(Cart)=  0.00000013 RMS(Int)=  0.00004830
 Variable       Old X    -DE/DX   Delta X   Delta X   Delta X     New X
                                 (Linear)    (Quad)   (Total)
    R1        2.48029   0.02777   0.01295  -0.01369  -0.00073   2.47956
    R2        2.02650   0.00377   0.00854  -0.01036  -0.00182   2.02468
    R3        2.02857   0.01627   0.00691  -0.00627   0.00064   2.02920
    R4        2.55608   0.00818   0.01463  -0.01791  -0.00328   2.55280
    R5        2.03653   0.00309   0.00756  -0.00918  -0.00162   2.03491
    R6        4.78165   0.01049   0.00190   0.01755   0.01946   4.80110
    R7        2.61859   0.00413   0.04681  -0.06036  -0.01355   2.60503
    R8        1.81056   0.00605   0.01544  -0.01927  -0.00384   1.80672
    R9        2.43475   0.01124   0.03506  -0.04486  -0.00980   2.42495
   R10        1.81420   0.01353   0.01856  -0.02251  -0.00396   1.81024
    A1        2.06376  -0.02149   0.00760  -0.01785  -0.01029   2.05348
    A2        2.12717   0.04703  -0.00279   0.02042   0.01764   2.14481
    A3        2.09222  -0.02557  -0.00482  -0.00255  -0.00734   2.08487
    A4        2.21818   0.03718   0.00502   0.00396   0.00901   2.22718
    A5        2.16721  -0.01879   0.00647  -0.01389  -0.00741   2.15979
    A6        1.89778  -0.01839  -0.01157   0.00996  -0.00160   1.89618
    A7        1.93458   0.02412  -0.00329   0.01122   0.00793   1.94251
    A8        1.82082  -0.00723  -0.02688   0.03338   0.00650   1.82732
    A9        1.82988  -0.00432  -0.00449   0.00442  -0.00008   1.82980
   A10        1.85111   0.00034  -0.01165   0.01588   0.00423   1.85534
   A11        2.68428   0.05506   0.10705   0.13016   0.23722   2.92150
   A12        2.53344   0.01084   0.33072  -0.19038   0.14023   2.67367
    D1       -3.12422  -0.00086  -0.02107   0.01913  -0.00200  -3.12622
    D2        0.02481   0.00026  -0.01277   0.01229  -0.00057   0.02424
    D3        0.00796  -0.00431  -0.02180   0.02117  -0.00055   0.00740
    D4       -3.12620  -0.00318  -0.01349   0.01433   0.00088  -3.12532
    D5        2.38987  -0.00390   0.09989  -0.06564   0.03439   2.42426
    D6       -0.28900   0.00128  -0.16060   0.09562  -0.06512  -0.35412
    D7        0.17946  -0.00338  -0.05240   0.04989  -0.00248   0.17698
    D8       -2.96863  -0.00440  -0.05951   0.05578  -0.00377  -2.97240
    D9       -1.13854  -0.00337  -0.12607   0.09626  -0.02981  -1.16835
   D10        2.63547  -0.00156   0.03322  -0.03847  -0.00525   2.63021
         Item               Value     Threshold  Converged?
 Maximum Force            0.055057     0.002500     NO 
 RMS     Force            0.018450     0.001667     NO 
 Maximum Displacement     0.553682     0.010000     NO 
 RMS     Displacement     0.286405     0.006667     NO 
 Predicted change in Energy=-6.276646D-03
 GradGradGradGradGradGradGradGradGradGradGradGradGradGradGradGradGradGrad

                          Input orientation:                          
 ---------------------------------------------------------------------
 Center     Atomic      Atomic             Coordinates (Angstroms)
 Number     Number       Type             X           Y           Z
 ---------------------------------------------------------------------
      1          6           0       -0.863702    1.434453    0.201971
      2          6           0       -1.909455    0.735298   -0.171199
      3          1           0       -0.953089    2.502129    0.200704
      4          1           0        0.060215    0.982298    0.510187
      5          8           0       -2.024078   -0.609463   -0.229180
      6          1           0       -2.837411    1.174217   -0.496477
      7          8           0       -0.951521   -1.229912    0.374970
      8          1           0       -0.203854   -1.019105   -0.182377
      9          8           0        2.045862   -0.533176    0.046109
     10          8           0        2.944582    0.242538   -0.440970
     11          1           0        3.789190   -0.139557   -0.199547
 ---------------------------------------------------------------------
                    Distance matrix (angstroms):
                    1          2          3          4          5
     1  C    0.000000
     2  C    1.312125   0.000000
     3  H    1.071412   2.043194   0.000000
     4  H    1.073808   2.098784   1.852688   0.000000
     5  O    2.389552   1.350883   3.318709   2.724820   0.000000
     6  H    2.109758   1.076827   2.408336   3.073506   1.978503
     7  O    2.671419   2.253439   3.736108   2.436342   1.378525
     8  H    2.569644   2.446861   3.620386   2.134242   1.866336
     9  O    3.515881   4.159421   4.269741   2.540635   4.079952
    10  O    4.041913   4.886437   4.550751   3.125943   5.045626
    11  H    4.928299   5.765478   5.443153   3.958224   5.832304
                    6          7          8          9         10
     6  H    0.000000
     7  O    3.177394   0.000000
     8  H    3.441648   0.956076   0.000000
     9  O    5.201533   3.094817   2.312910   0.000000
    10  O    5.856838   4.244229   3.401656   1.283229   0.000000
    11  H    6.762101   4.898294   4.088801   1.804017   0.957937
                   11
    11  H    0.000000
 Stoichiometry    C2H5O4(2)
 Framework group  C1[X(C2H5O4)]
 Deg. of freedom    27
 Full point group                 C1      NOp   1
 Largest Abelian subgroup         C1      NOp   1
 Largest concise Abelian subgroup C1      NOp   1
                         Standard orientation:                         
 ---------------------------------------------------------------------
 Center     Atomic      Atomic             Coordinates (Angstroms)
 Number     Number       Type             X           Y           Z
 ---------------------------------------------------------------------
      1          6           0        0.911607    1.398116   -0.289782
      2          6           0        1.915691    0.686211    0.164840
      3          1           0        1.040245    2.460296   -0.345900
      4          1           0       -0.015828    0.960962   -0.608880
      5          8           0        1.978259   -0.656010    0.304169
      6          1           0        2.846014    1.111018    0.501878
      7          8           0        0.907571   -1.273247   -0.306548
      8          1           0        0.147301   -1.004395    0.207055
      9          8           0       -2.072474   -0.455047   -0.139890
     10          8           0       -2.960017    0.378521    0.265212
     11          1           0       -3.808240    0.012429    0.011957
 ---------------------------------------------------------------------
 Rotational constants (GHZ):           6.0799012           1.3690333           1.1506261
 Standard basis: 6-311+G(2df,2p) (5D, 7F)
 There are   279 symmetry adapted cartesian basis functions of A   symmetry.
 There are   249 symmetry adapted basis functions of A   symmetry.
   249 basis functions,   367 primitive gaussians,   279 cartesian basis functions
    25 alpha electrons       24 beta electrons
       nuclear repulsion energy       227.0522619549 Hartrees.
 NAtoms=   11 NActive=   11 NUniq=   11 SFac= 1.00D+00 NAtFMM=   60 NAOKFM=F Big=F
 Integral buffers will be    131072 words long.
 Raffenetti 2 integral format.
 Two-electron integral symmetry is turned on.
 One-electron integrals computed using PRISM.
 NBasis=   249 RedAO= T EigKep=  7.11D-05  NBF=   249
 NBsUse=   249 1.00D-06 EigRej= -1.00D+00 NBFU=   249
 Lowest energy guess from the checkpoint file:  "/scratch/dinius.ab/QMscratch/Gau-24724.chk"
 B after Tr=    -0.000000    0.000000   -0.000000
         Rot=    0.999711    0.014813    0.001657   -0.018865 Ang=   2.76 deg.
 B after Tr=     0.000000    0.000000   -0.000000
         Rot=    0.999052    0.024048   -0.001157   -0.036259 Ang=   4.99 deg.
 Initial guess <Sx>= 0.0000 <Sy>= 0.0000 <Sz>= 0.5000 <S**2>= 0.7550 S= 0.5025
 Requested convergence on RMS density matrix=1.00D-08 within 128 cycles.
 Requested convergence on MAX density matrix=1.00D-06.
 Requested convergence on             energy=1.00D-06.
 No special actions if energy rises.
 SCF Done:  E(UM062X) =  -379.828535846     A.U. after   16 cycles
            NFock= 16  Conv=0.91D-08     -V/T= 2.0023
 <Sx>= 0.0000 <Sy>= 0.0000 <Sz>= 0.5000 <S**2>= 0.7549 S= 0.5025
 <L.S>= 0.000000000000E+00
 Annihilation of the first spin contaminant:
 S**2 before annihilation     0.7549,   after     0.7500
 Calling FoFJK, ICntrl=      2127 FMM=F ISym2X=0 I1Cent= 0 IOpClX= 1 NMat=1 NMatS=1 NMatT=0.
 ***** Axes restored to original set *****
 -------------------------------------------------------------------
 Center     Atomic                   Forces (Hartrees/Bohr)
 Number     Number              X              Y              Z
 -------------------------------------------------------------------
      1        6           0.007076458    0.004998693    0.002591163
      2        6          -0.009729380   -0.001822519   -0.002063237
      3        1           0.001621657    0.004969760   -0.000823039
      4        1           0.002190352    0.000059105    0.002852028
      5        8          -0.013511190    0.002963336   -0.007606029
      6        1          -0.003174648    0.001457642   -0.001667768
      7        8           0.005791550   -0.013628088    0.015913294
      8        1           0.010670361    0.002270141   -0.009158663
      9        8          -0.014595965   -0.014011916    0.007827848
     10        8          -0.000113195    0.018314422   -0.011925512
     11        1           0.013773999   -0.005570576    0.004059915
 -------------------------------------------------------------------
 Cartesian Forces:  Max     0.018314422 RMS     0.008438827

 GradGradGradGradGradGradGradGradGradGradGradGradGradGradGradGradGradGrad
 Berny optimization.
 Using GEDIIS/GDIIS optimizer.
 FormGI is forming the generalized inverse of G from B-inverse, IUseBI=4.
 Internal  Forces:  Max     0.021044050 RMS     0.007349523
 Search for a local minimum.
 Step number   4 out of a maximum of  100
 All quantities printed in internal units (Hartrees-Bohrs-Radians)
 Mixed Optimization -- RFO/linear search
 Update second derivatives using D2CorX and points    1    4    2
 DE=  3.18D-04 DEPred=-6.28D-03 R=-5.07D-02
 Trust test=-5.07D-02 RLast= 5.34D-01 DXMaxT set to 1.26D-01
 ITU= -1 -1  1  0
 Use linear search instead of GDIIS.
 Energy rises -- skip Quadratic/GDIIS search.
 Quartic linear search produced a step of -0.50165.
 Iteration  1 RMS(Cart)=  0.14623761 RMS(Int)=  0.01076427
 Iteration  2 RMS(Cart)=  0.01755555 RMS(Int)=  0.00021214
 Iteration  3 RMS(Cart)=  0.00023019 RMS(Int)=  0.00014727
 Iteration  4 RMS(Cart)=  0.00000008 RMS(Int)=  0.00014727
 Variable       Old X    -DE/DX   Delta X   Delta X   Delta X     New X
                                 (Linear)    (Quad)   (Total)
    R1        2.47956   0.01386   0.01085   0.00000   0.01085   2.49041
    R2        2.02468   0.00481   0.00782   0.00000   0.00782   2.03250
    R3        2.02920   0.00225   0.00527   0.00000   0.00526   2.03447
    R4        2.55280   0.00816   0.01348   0.00000   0.01348   2.56628
    R5        2.03491   0.00383   0.00693   0.00000   0.00693   2.04184
    R6        4.80110   0.00000  -0.00822   0.00000  -0.00822   4.79289
    R7        2.60503   0.02104   0.04468   0.00000   0.04467   2.64970
    R8        1.80672   0.01420   0.01441   0.00000   0.01441   1.82114
    R9        2.42495   0.02029   0.03328   0.00000   0.03328   2.45823
   R10        1.81024   0.01538   0.01700   0.00000   0.01700   1.82724
    A1        2.05348   0.00349   0.01131   0.00000   0.01124   2.06471
    A2        2.14481  -0.00408  -0.01111   0.00000  -0.01107   2.13374
    A3        2.08487   0.00059  -0.00022   0.00000  -0.00017   2.08470
    A4        2.22718  -0.00208  -0.00045   0.00000  -0.00044   2.22675
    A5        2.15979   0.00120   0.00895   0.00000   0.00895   2.16875
    A6        1.89618   0.00088  -0.00856   0.00000  -0.00856   1.88761
    A7        1.94251   0.00583  -0.00664   0.00000  -0.00664   1.93588
    A8        1.82732  -0.00062  -0.02501   0.00000  -0.02501   1.80232
    A9        1.82980  -0.00282  -0.00360   0.00000  -0.00360   1.82621
   A10        1.85534   0.00083  -0.01155   0.00000  -0.01155   1.84379
   A11        2.92150  -0.00430  -0.03239   0.00000  -0.03237   2.88913
   A12        2.67367  -0.00067   0.19725   0.00000   0.19690   2.87057
    D1       -3.12622  -0.00222  -0.01604   0.00000  -0.01628   3.14068
    D2        0.02424  -0.00121  -0.01004   0.00000  -0.01028   0.01396
    D3        0.00740  -0.00195  -0.01736   0.00000  -0.01716  -0.00976
    D4       -3.12532  -0.00094  -0.01136   0.00000  -0.01116  -3.13648
    D5        2.42426  -0.00003   0.06357   0.00000   0.06400   2.48826
    D6       -0.35412  -0.00086  -0.09728   0.00000  -0.09770  -0.45182
    D7        0.17698  -0.00260  -0.04115   0.00000  -0.04115   0.13582
    D8       -2.97240  -0.00349  -0.04626   0.00000  -0.04630  -3.01870
    D9       -1.16835  -0.00221  -0.08705   0.00000  -0.08705  -1.25540
   D10        2.63021  -0.00086   0.02951   0.00000   0.02951   2.65973
         Item               Value     Threshold  Converged?
 Maximum Force            0.021044     0.002500     NO 
 RMS     Force            0.007350     0.001667     NO 
 Maximum Displacement     0.474005     0.010000     NO 
 RMS     Displacement     0.156919     0.006667     NO 
 Predicted change in Energy=-1.458916D-03
 GradGradGradGradGradGradGradGradGradGradGradGradGradGradGradGradGradGrad

                          Input orientation:                          
 ---------------------------------------------------------------------
 Center     Atomic      Atomic             Coordinates (Angstroms)
 Number     Number       Type             X           Y           Z
 ---------------------------------------------------------------------
      1          6           0       -0.885605    1.472810    0.144962
      2          6           0       -1.952765    0.737550   -0.094490
      3          1           0       -0.991824    2.543085    0.138277
      4          1           0        0.077024    1.037802    0.352725
      5          8           0       -2.033337   -0.617526   -0.133062
      6          1           0       -2.932179    1.139298   -0.310855
      7          8           0       -0.833312   -1.202764    0.295300
      8          1           0       -0.228076   -1.024759   -0.433210
      9          8           0        2.057781   -0.533445    0.151387
     10          8           0        2.991924    0.184353   -0.400275
     11          1           0        3.827109   -0.196683   -0.096569
 ---------------------------------------------------------------------
                    Distance matrix (angstroms):
                    1          2          3          4          5
     1  C    0.000000
     2  C    1.317867   0.000000
     3  H    1.075553   2.058529   0.000000
     4  H    1.076593   2.100046   1.858575   0.000000
     5  O    2.400853   1.358017   3.338837   2.725752   0.000000
     6  H    2.123079   1.080494   2.436660   3.083170   1.981403
     7  O    2.680305   2.273748   3.752488   2.419121   1.402162
     8  H    2.646598   2.488979   3.693158   2.228213   1.874806
     9  O    3.562109   4.214304   4.331893   2.536287   4.101857
    10  O    4.122213   4.984925   4.660891   3.129222   5.095848
    11  H    5.005519   5.854890   5.548297   3.973532   5.875651
                    6          7          8          9         10
     6  H    0.000000
     7  O    3.202799   0.000000
     8  H    3.465586   0.963703   0.000000
     9  O    5.283127   2.971047   2.410038   0.000000
    10  O    6.001242   4.127996   3.439685   1.300841   0.000000
    11  H    6.893383   4.783857   4.152537   1.818079   0.966933
                   11
    11  H    0.000000
 Stoichiometry    C2H5O4(2)
 Framework group  C1[X(C2H5O4)]
 Deg. of freedom    27
 Full point group                 C1      NOp   1
 Largest Abelian subgroup         C1      NOp   1
 Largest concise Abelian subgroup C1      NOp   1
                         Standard orientation:                         
 ---------------------------------------------------------------------
 Center     Atomic      Atomic             Coordinates (Angstroms)
 Number     Number       Type             X           Y           Z
 ---------------------------------------------------------------------
      1          6           0        0.979499    1.421447   -0.204376
      2          6           0        1.993866    0.639912    0.107133
[...]
     11        1          -0.000024665   -0.000136916    0.000123181
 -------------------------------------------------------------------
 Cartesian Forces:  Max     0.000292974 RMS     0.000105683
 FormGI is forming the generalized inverse of G from B-inverse, IUseBI=4.

 GradGradGradGradGradGradGradGradGradGradGradGradGradGradGradGradGradGrad
 Berny optimization.
 Internal  Forces:  Max     0.000621427 RMS     0.000187601
 Search for a local minimum.
 Step number   1 out of a maximum of    2
 All quantities printed in internal units (Hartrees-Bohrs-Radians)
 Second derivative matrix not updated -- analytic derivatives used.
 ITU=  0
     Eigenvalues ---    0.00143   0.00626   0.00973   0.01145   0.02262
     Eigenvalues ---    0.02576   0.02816   0.04066   0.04296   0.06061
     Eigenvalues ---    0.07931   0.10585   0.12442   0.20236   0.22052
     Eigenvalues ---    0.22922   0.31069   0.35160   0.36728   0.37388
     Eigenvalues ---    0.40227   0.49335   0.51485   0.53364   0.56350
     Eigenvalues ---    0.62963   0.96544
 Angle between quadratic step and forces=  56.46 degrees.
 Linear search not attempted -- first point.
 Iteration  1 RMS(Cart)=  0.01241848 RMS(Int)=  0.00007323
 Iteration  2 RMS(Cart)=  0.00009927 RMS(Int)=  0.00000555
 Iteration  3 RMS(Cart)=  0.00000000 RMS(Int)=  0.00000555
 Variable       Old X    -DE/DX   Delta X   Delta X   Delta X     New X
                                 (Linear)    (Quad)   (Total)
    R1        2.49952  -0.00035   0.00000  -0.00034  -0.00034   2.49918
    R2        2.03709   0.00001   0.00000   0.00004   0.00004   2.03713
    R3        2.03505  -0.00018   0.00000  -0.00033  -0.00033   2.03472
    R4        2.56558  -0.00017   0.00000  -0.00029  -0.00029   2.56529
    R5        2.04553   0.00005   0.00000  -0.00001  -0.00001   2.04551
    R6        6.47787  -0.00002   0.00000   0.00054   0.00054   6.47841
    R7        2.66357   0.00005   0.00000   0.00004   0.00004   2.66361
    R8        1.83361   0.00001   0.00000  -0.00022  -0.00022   1.83339
    R9        2.45974  -0.00007   0.00000  -0.00030  -0.00030   2.45944
   R10        1.83783  -0.00009   0.00000  -0.00025  -0.00025   1.83758
    A1        2.06721   0.00024   0.00000  -0.00055  -0.00056   2.06665
    A2        2.13653  -0.00031   0.00000  -0.00030  -0.00030   2.13624
    A3        2.07905   0.00007   0.00000   0.00083   0.00084   2.07989
    A4        2.23969  -0.00034   0.00000  -0.00019  -0.00020   2.23949
    A5        2.16196   0.00015   0.00000   0.00001   0.00001   2.16197
    A6        1.88150   0.00019   0.00000   0.00018   0.00018   1.88168
    A7        1.94495  -0.00028   0.00000  -0.00045  -0.00045   1.94449
    A8        1.76134   0.00008   0.00000  -0.00140  -0.00140   1.75994
    A9        1.82189   0.00062   0.00000   0.01838   0.01838   1.84027
   A10        1.84669  -0.00010   0.00000  -0.00046  -0.00046   1.84623
   A11        2.58021  -0.00022   0.00000  -0.00144  -0.00145   2.57876
   A12        1.47982  -0.00013   0.00000  -0.01602  -0.01603   1.46379
    D1        3.13983   0.00002   0.00000   0.00023   0.00024   3.14006
    D2        0.00821   0.00002   0.00000   0.00057   0.00057   0.00879
    D3       -0.03220   0.00003   0.00000  -0.00044  -0.00044  -0.03264
    D4        3.11937   0.00003   0.00000  -0.00010  -0.00010   3.11927
    D5        0.81912   0.00002   0.00000   0.00739   0.00741   0.82652
    D6       -1.13905   0.00021   0.00000   0.01391   0.01389  -1.12516
    D7        0.02986   0.00003   0.00000  -0.00313  -0.00313   0.02674
    D8       -3.12043   0.00002   0.00000  -0.00343  -0.00342  -3.12385
    D9       -1.55888   0.00001   0.00000  -0.00050  -0.00050  -1.55939
   D10        2.05815   0.00006   0.00000   0.00277   0.00277   2.06093
         Item               Value     Threshold  Converged?
 Maximum Force            0.000621     0.002500     YES
 RMS     Force            0.000188     0.001667     YES
 Maximum Displacement     0.028364     0.010000     NO 
 RMS     Displacement     0.012392     0.006667     NO 
 Predicted change in Energy=-8.693716D-06
                           ----------------------------
                           ! Non-Optimized Parameters !
                           ! (Angstroms and Degrees)  !
 --------------------------                            --------------------------
 ! Name  Definition              Value          Derivative Info.                !
 --------------------------------------------------------------------------------
 ! R1    R(1,2)                  1.3225         -DE/DX =   -0.0003              !
 ! R2    R(1,3)                  1.078          -DE/DX =    0.0                 !
 ! R3    R(1,4)                  1.0767         -DE/DX =   -0.0002              !
 ! R4    R(2,5)                  1.3575         -DE/DX =   -0.0002              !
 ! R5    R(2,6)                  1.0824         -DE/DX =    0.0                 !
 ! R6    R(4,9)                  3.4282         -DE/DX =    0.0                 !
 ! R7    R(5,7)                  1.4095         -DE/DX =    0.0                 !
 ! R8    R(7,8)                  0.9702         -DE/DX =    0.0                 !
 ! R9    R(9,10)                 1.3015         -DE/DX =   -0.0001              !
 ! R10   R(10,11)                0.9724         -DE/DX =   -0.0001              !
 ! A1    A(2,1,3)              118.4101         -DE/DX =    0.0002              !
 ! A2    A(2,1,4)              122.3974         -DE/DX =   -0.0003              !
 ! A3    A(3,1,4)              119.169          -DE/DX =    0.0001              !
 ! A4    A(1,2,5)              128.3136         -DE/DX =   -0.0003              !
 ! A5    A(1,2,6)              123.872          -DE/DX =    0.0002              !
 ! A6    A(5,2,6)              107.8123         -DE/DX =    0.0002              !
 ! A7    A(2,5,7)              111.4113         -DE/DX =   -0.0003              !
 ! A8    A(5,7,8)              100.8373         -DE/DX =    0.0001              !
 ! A9    A(4,9,10)             105.4398         -DE/DX =    0.0006              !
 ! A10   A(9,10,11)            105.7811         -DE/DX =   -0.0001              !
 ! A11   L(1,4,9,7,-1)         147.7518         -DE/DX =   -0.0002              !
 ! A12   L(1,4,9,7,-2)          83.8692         -DE/DX =   -0.0001              !
 ! D1    D(3,1,2,5)            179.9123         -DE/DX =    0.0                 !
 ! D2    D(3,1,2,6)              0.5035         -DE/DX =    0.0                 !
 ! D3    D(4,1,2,5)             -1.8699         -DE/DX =    0.0                 !
 ! D4    D(4,1,2,6)            178.7213         -DE/DX =    0.0                 !
 ! D5    D(2,1,9,10)            47.3562         -DE/DX =    0.0                 !
 ! D6    D(3,1,9,10)           -64.4669         -DE/DX =    0.0002              !
 ! D7    D(1,2,5,7)              1.5319         -DE/DX =    0.0                 !
 ! D8    D(6,2,5,7)           -178.9837         -DE/DX =    0.0                 !
 ! D9    D(2,5,7,8)            -89.3463         -DE/DX =    0.0                 !
 ! D10   D(4,9,10,11)          118.0824         -DE/DX =    0.0001              !
 --------------------------------------------------------------------------------
 GradGradGradGradGradGradGradGradGradGradGradGradGradGradGradGradGradGrad


 ----------------------------------------------------------------------

 Electric dipole moment (input orientation):
 (Debye = 10**-18 statcoulomb cm , SI units = C m)
                  (au)            (Debye)         (10**-30 SI)
   Tot        0.167773D+01      0.426436D+01      0.142244D+02
   x          0.139089D+01      0.353528D+01      0.117924D+02
   y          0.763472D+00      0.194055D+01      0.647298D+01
   z         -0.545273D+00     -0.138594D+01     -0.462301D+01

 Dipole polarizability, Alpha (input orientation).
 (esu units = cm**3 , SI units = C**2 m**2 J**-1)
 Alpha(0;0):
               (au)            (10**-24 esu)      (10**-40 SI)
   iso        0.473709D+02      0.701965D+01      0.781041D+01
   aniso      0.930374D+01      0.137867D+01      0.153398D+01
   xx         0.411939D+02      0.610431D+01      0.679196D+01
   yx         0.366456D-01      0.543032D-02      0.604205D-02
   yy         0.500128D+02      0.741114D+01      0.824600D+01
   zx        -0.184804D+00     -0.273851D-01     -0.304700D-01
   zy        -0.390652D-01     -0.578887D-02     -0.644099D-02
   zz         0.509061D+02      0.754350D+01      0.839328D+01

 ----------------------------------------------------------------------

 Dipole orientation:
     6         -0.56162209         -3.46612994         -0.62300976
     6         -2.13337810         -1.53656350         -0.85534423
     1         -1.23354482         -5.16079146          0.28604797
     1          1.33748080         -3.42015624         -1.35288131
     8         -1.69218359          0.75550911         -1.92022332
     1         -4.06155165         -1.54819459         -0.17256349
     8          0.77609080          0.91055485         -2.90926689
     1          1.69662283          1.53108803         -1.44992335
     8          2.19898495          1.86108319          2.29802750
     8          0.01902509          2.21844552          3.37986845
     1          0.32358157          2.05725399          5.18510208

 Electric dipole moment (dipole orientation):
 (Debye = 10**-18 statcoulomb cm , SI units = C m)
                  (au)            (Debye)         (10**-30 SI)
   Tot        0.167773D+01      0.426436D+01      0.142244D+02
   x          0.000000D+00      0.000000D+00      0.000000D+00
   y          0.000000D+00      0.000000D+00      0.000000D+00
   z          0.167773D+01      0.426436D+01      0.142244D+02

 Dipole polarizability, Alpha (dipole orientation).
 (esu units = cm**3 , SI units = C**2 m**2 J**-1)
 Alpha(0;0):
               (au)            (10**-24 esu)      (10**-40 SI)
   iso        0.473709D+02      0.701965D+01      0.781041D+01
   aniso      0.930374D+01      0.137867D+01      0.153398D+01
   xx         0.484448D+02      0.717878D+01      0.798747D+01
   yx        -0.154423D+01     -0.228831D+00     -0.254609D+00
   yy         0.494832D+02      0.733265D+01      0.815867D+01
   zx        -0.387656D+01     -0.574447D+00     -0.639159D+00
   zy        -0.188622D+01     -0.279510D+00     -0.310996D+00
   zz         0.441848D+02      0.654752D+01      0.728510D+01

 ----------------------------------------------------------------------
 1\1\GINC-C0074\Freq\UM062X\6-311+G(2df,2p)\C2H5O4(2)\DINIUS.AB\26-Oct-
 2018\0\\#N Geom=AllCheck Guess=TCheck SCRF=Check GenChk UM062X/6-311+G
 (2df,2p) Freq\\Title\\0,2\C,-0.9385942062,1.4821276035,0.6954381663\C,
 -1.1501044383,0.801494296,-0.4187944488\H,-0.9662525976,2.5588959157,0
 .6524077452\H,-0.7681821554,0.9997060932,1.6430374144\O,-1.1595581505,
 -0.5447617331,-0.5940479787\H,-1.343405009,1.2616229123,-1.379318131\O
 ,-0.9414497118,-1.2240484224,0.6215570559\H,0.0267141728,-1.2883728724
 ,0.6249808414\O,1.8486185995,-0.6088577965,0.1213078513\O,1.821855473,
 -0.1794413213,-1.1071649107\H,2.6670980234,0.281355325,-1.2452136051\\
 Version=EM64L-G16RevA.03\State=2-A\HF=-379.835393\S2=0.755118\S2-1=0.\
 S2A=0.750015\RMSD=1.434e-09\RMSF=1.057e-04\ZeroPoint=0.0785319\Thermal
 =0.0867968\Dipole=1.3908851,0.7634715,-0.5452725\DipoleDeriv=-0.419045
 2,-0.0606893,0.0073293,-0.0105883,-0.2258694,-0.1187432,0.015077,-0.31
 38056,-0.2929427,-0.0140229,0.0530429,0.080826,0.0105239,1.1843844,0.4
 031089,0.0714699,0.354752,0.360093,0.1540595,0.0037651,-0.0148654,0.00
 95137,-0.0382444,0.0040099,-0.016066,0.0247928,0.0714252,0.1798232,0.0
 057225,-0.0284578,0.0118974,0.0476637,0.0525653,-0.0339504,0.0148125,0
 .0398262,-0.1460416,-0.0830573,0.0321498,-0.0254642,-0.9165607,-0.3494
 826,-0.0089971,-0.1935239,-0.2368637,0.1518345,0.0046532,-0.0230093,0.
 0150277,0.0040552,0.0371946,-0.0273304,0.0178915,0.0044472,-0.2963544,
 0.1178849,-0.0352091,0.0107354,-0.4166541,-0.0521126,-0.0198872,0.0422
 538,-0.2097628,0.4656964,-0.0457414,-0.0636884,0.01498,0.3266182,-0.00
 37373,-0.0395795,0.0469853,0.2413429,-0.2828363,0.0081082,-0.0214933,-
 0.0580397,-0.0950661,-0.1150827,0.0404506,-0.1084087,0.2081489,-0.0820
 876,0.0387017,0.114503,0.0976818,-0.2072957,0.1254587,0.0569801,0.0879
 555,-0.4687378,0.2889744,-0.0423905,-0.0480848,-0.0762677,0.3369689,0.
 016821,-0.038167,0.0262949,0.2830238\Polar=41.193919,0.0366456,50.0128
 283,-0.1848037,-0.0390652,50.9060802\Quadrupole=1.5805717,-1.3618453,-
 0.2187264,-0.5422144,-1.9065412,-1.487345\PG=C01 [X(C2H5O4)]\NImag=0\\
 0.11746260,0.01091272,0.72185059,0.12840871,0.08948314,0.80264820,-0.0
 6880484,-0.03457527,-0.07570918,0.16742757,-0.03141428,-0.21551672,-0.
 17969295,0.01267600,0.64355225,-0.07460702,-0.18579386,-0.45478363,0.1
 3989264,0.11046769,0.87914992,-0.02749251,0.01045994,-0.00601631,-0.00
 156306,-0.00607041,0.00075461,0.02251262,0.00796847,-0.35367413,0.0107
 8209,0.00125975,-0.01408245,0.00421027,-0.00849018,0.37213555,-0.00622
 314,0.01746671,-0.05401567,0.00177258,-0.02922397,0.00376476,0.0063479
 1,-0.01084598,0.05030180,-0.03950346,0.01971510,-0.04163629,0.00529954
 ,0.00195988,-0.00523716,0.00094236,-0.00020872,-0.00009323,0.03113585,
 0.02129801,-0.11427808,0.11973160,-0.00277515,0.01439585,-0.01448289,0
 .00405220,-0.00674720,0.02345718,-0.02278509,0.11411843,-0.04305410,0.
 11446759,-0.28676855,-0.00459350,0.01326632,-0.01935271,0.00064998,-0.
 00180593,0.00410465,0.04718629,-0.12636502,0.30198786,0.01171513,-0.00
 716637,-0.00167010,-0.04922045,0.00339237,-0.01041764,0.01135456,-0.00
 014770,-0.00340400,-0.00518954,0.00024935,0.00080786,0.09251268,-0.004
 74045,-0.05134795,-0.01926173,-0.00749607,-0.30049993,-0.07143036,-0.0
 0025112,0.00146768,-0.00311748,0.00086192,-0.00069533,0.00263565,-0.03
 086366,0.48214718,-0.00124118,-0.04034616,0.00525501,-0.01320595,-0.02
 818699,-0.11901321,-0.00309722,-0.00135964,-0.00515799,0.00099788,0.00
 220145,-0.00000285,0.07877256,-0.04309043,0.37297649,0.00718443,0.0024
 4132,-0.00455926,-0.05107844,0.01906124,-0.04468673,-0.00625932,-0.000
 20369,0.00135308,0.00938507,-0.00059850,-0.00197963,0.00106765,0.00117
 655,-0.00038883,0.03587970,-0.00291333,0.01128442,-0.01568101,0.017330
 49,-0.09753309,0.09546477,-0.00008350,0.00063987,0.00021329,-0.0004743
 8,-0.00164358,-0.00296578,0.00673113,-0.02284849,0.03369042,-0.0211700
 8,0.11720401,-0.00454365,0.01194973,-0.01587048,-0.04451855,0.10202229
 ,-0.27702874,0.00129017,-0.00024197,0.00037280,-0.00230323,-0.00248647
 ,-0.00164667,0.00006961,0.00213444,0.00186454,0.04976533,-0.11041193,0
 .28834953,0.00067504,-0.00120061,0.00327024,-0.00235580,-0.00434327,-0
 .00946413,0.00088500,-0.00006600,0.00015173,-0.00257900,0.00021463,0.0
 0094218,-0.06021517,0.04700866,-0.06374276,0.00381868,0.00129869,0.000
 30833,0.58043129,-0.00073448,0.00145743,-0.00488182,0.00915436,-0.0313
 4278,0.05817042,0.00076689,0.00009823,0.00229170,-0.00016955,-0.004037
 27,0.00146484,0.00360116,-0.09736632,0.06729671,0.00019385,-0.00648932
 ,-0.00292262,-0.05009874,0.15243888,0.00129235,-0.00703860,0.00254753,
 -0.00237533,0.01178495,-0.01089711,-0.00003152,-0.00075994,0.00086277,
 0.00107685,-0.00170666,0.00181963,-0.01750378,0.11552827,-0.23315146,-
 0.00024564,-0.00066373,0.00400554,0.02046251,-0.13570518,0.26839210,-0
 .00143922,-0.00122543,-0.00235402,0.00060030,0.00669703,0.00416065,-0.
 00020087,-0.00021255,0.00006835,0.00065042,0.00031156,0.00009498,-0.00
 162256,-0.00627793,0.00002866,0.00019073,-0.00107961,-0.00005824,-0.51
 098527,0.04002682,-0.00546254,0.51684361,-0.00111562,0.00003234,-0.000
 81708,0.00431565,0.00212382,0.00430769,-0.00046967,0.00017268,-0.00024
 076,0.00112312,-0.00088211,-0.00071535,0.02484759,-0.01091482,0.009671
 48,-0.00085566,-0.00070898,-0.00004783,0.00995736,-0.01566133,0.017699
 23,-0.03797489,0.02846175,-0.00021077,0.00004962,0.00106092,-0.0015204
 2,-0.00063837,-0.00177736,-0.00000071,0.00006590,-0.00024365,-0.000046
 19,-0.00036948,-0.00006832,-0.04719996,0.01768550,-0.02327749,0.000728
 41,0.00045811,-0.00004615,0.04606832,0.01290271,-0.03360664,0.00383626
 ,-0.02968625,0.06025472,0.00005529,0.00068584,0.00062625,0.00031633,-0
 .00203893,-0.00066870,-0.00007096,0.00008073,0.00001710,-0.00016494,0.
 00006702,-0.00007713,0.00246156,0.00002504,0.00172781,-0.00005990,0.00
 021617,0.00001774,-0.00926220,-0.00221212,0.00265000,-0.00531737,0.000
 40847,-0.00379409,0.04965089,0.00037967,-0.00001771,0.00018237,-0.0001
 1052,-0.00106232,-0.00041335,0.00002983,-0.00001803,0.00005472,-0.0001
 0118,-0.00020358,0.00012767,-0.00010551,0.00029538,0.00040571,0.000096
 90,0.00002477,0.00004696,-0.00186407,0.00132284,0.00100233,-0.00253902
 ,-0.00281942,-0.00190399,0.02332642,0.08068489,0.00017262,-0.00002944,
 -0.00012670,0.00000778,0.00065237,-0.00025048,-0.00009229,0.00006144,-
 0.00005653,0.00026903,-0.00009905,-0.00018408,0.00100375,-0.00080480,0
 .00003622,-0.00021876,0.00010362,-0.00006065,0.00004161,0.00040205,0.0
 0040792,0.00372553,0.00059186,-0.00062313,-0.01891026,-0.17611280,0.47
 168381,-0.00038019,-0.00016139,-0.00055168,-0.00055751,0.00085601,0.00
 067021,-0.00008916,0.00001525,-0.00003941,0.00015340,-0.00003877,-0.00
 007655,-0.00214827,0.00012349,0.00003566,-0.00002857,0.00016409,-0.000
 00790,-0.00114861,-0.00112381,0.00021518,0.00196021,0.00088575,0.00222
 510,-0.05289815,-0.02503867,0.00710314,0.45393431,0.00068761,0.0003848
 6,0.00034765,0.00014216,-0.00089856,-0.00084113,-0.00001637,0.00005083
 ,-0.00001847,0.00004216,-0.00004318,-0.00006344,-0.00094657,0.00013346
 ,-0.00007536,-0.00024623,0.00008028,-0.00009525,-0.00086713,0.00069980
 ,-0.00033409,0.00304970,-0.00142849,0.00088051,-0.01167184,-0.06666412
 ,0.15940520,0.21409519,0.17306776,0.00034991,-0.00017997,0.00025998,-0
 .00004919,-0.00041858,-0.00012472,0.00015560,-0.00010089,0.00004356,-0
 .00030290,0.00008450,0.00016848,-0.00007988,-0.00015939,0.00031226,0.0
 0022737,-0.00018669,0.00003970,0.00167836,0.00114133,-0.00027729,-0.00
 316717,-0.00131392,-0.00141055,-0.02828827,0.14123321,-0.43367205,-0.0
 0467277,-0.16968947,0.47291740,0.00052772,0.00011415,0.00019165,-0.000
 06364,-0.00077562,-0.00039674,-0.00001866,0.00000465,0.00004902,-0.000
 12970,0.00000474,0.00009962,-0.00071557,0.00043357,0.00011336,-0.00010
 003,-0.00001968,-0.00001960,0.00073605,0.00059560,-0.00007808,-0.00067
 999,-0.00112209,-0.00008596,0.01528945,0.00592617,0.00689785,-0.398797
 45,-0.20426868,0.03414893,0.38395182,-0.00032831,-0.00017504,-0.000192
 26,0.00007860,0.00086393,0.00034075,0.00007240,-0.00004303,-0.00003694
 ,0.00003673,0.00001604,-0.00004655,0.00040822,-0.00037086,-0.00020719,
 0.00010431,-0.00000989,0.00005267,-0.00003952,-0.00112016,0.00019341,-
 0.00077567,0.00162455,0.00055573,-0.00888680,-0.01154271,0.01582954,-0
 .18977714,-0.10538264,0.02958988,0.19910718,0.11613982,-0.00034373,-0.
 00002877,-0.00020660,0.00029912,-0.00003277,0.00031329,0.00003979,-0.0
 0000534,0.00002351,0.00008894,0.00003484,-0.00005744,-0.00037842,-0.00
 011966,0.00015847,0.00000467,-0.00002108,0.00002058,0.00028360,-0.0001
 6014,-0.00010299,-0.00087247,0.00055095,-0.00026234,0.04669955,0.03537
 718,-0.03715433,-0.00490099,0.01048385,-0.03825677,-0.04092006,-0.0460
 7904,0.07552461\\-0.00006086,0.00014998,0.00008318,-0.00003889,0.00002
 355,-0.00020094,0.00001345,-0.00002232,0.00007678,0.00008524,0.0000271
 0,0.00006830,0.00001656,-0.00010084,-0.00000848,-0.00006119,-0.0000501
 4,0.00007243,-0.00002001,-0.00011637,0.00000426,0.00003494,0.00001328,
 -0.00005070,0.00029297,-0.00012523,0.00010358,-0.00028689,0.00006406,-
 0.00002524,0.00002466,0.00013692,-0.00012318\\\@


 EDUCATION IS NOT TRAINING BUT RATHER THE PROCESS THAT EQUIPS YOU TO
 ENTERTAIN YOURSELF, A FRIEND, OR AN IDEA.  -- WALLACE STERLING
 Job cpu time:       0 days  0 hours 26 minutes 27.9 seconds.
 Elapsed time:       0 days  0 hours 26 minutes 28.4 seconds.
 File lengths (MBytes):  RWF=   1360 Int=      0 D2E=      0 Chk=     32 Scr=     32
 Normal termination of Gaussian 16 at Fri Oct 26 12:49:38 2018.
