 Entering Gaussian System, Link 0=g16
 Input=rxn921.com
 Output=rxn921.log
 Initial command:
 /shared/centos7/gaussian/g16/l1.exe "/scratch/dinius.ab/QMscratch/Gau-38141.inp" -scrdir="/scratch/dinius.ab/QMscratch/"
 Default is to use a total of  20 processors:
                               20 via shared-memory
                                1 via Linda
 Entering Link 1 = /shared/centos7/gaussian/g16/l1.exe PID=     38142.
  
 Copyright (c) 1988,1990,1992,1993,1995,1998,2003,2009,2016,
            Gaussian, Inc.  All Rights Reserved.
  
 This is part of the Gaussian(R) 16 program.  It is based on
 the Gaussian(R) 09 system (copyright 2009, Gaussian, Inc.),
 the Gaussian(R) 03 system (copyright 2003, Gaussian, Inc.),
 the Gaussian(R) 98 system (copyright 1998, Gaussian, Inc.),
 the Gaussian(R) 94 system (copyright 1995, Gaussian, Inc.),
 the Gaussian 92(TM) system (copyright 1992, Gaussian, Inc.),
 the Gaussian 90(TM) system (copyright 1990, Gaussian, Inc.),
 the Gaussian 88(TM) system (copyright 1988, Gaussian, Inc.),
 the Gaussian 86(TM) system (copyright 1986, Carnegie Mellon
 University), and the Gaussian 82(TM) system (copyright 1983,
 Carnegie Mellon University). Gaussian is a federally registered
 trademark of Gaussian, Inc.
  
 This software contains proprietary and confidential information,
 including trade secrets, belonging to Gaussian, Inc.
  
 This software is provided under written license and may be
 used, copied, transmitted, or stored only in accord with that
 written license.
  
 The following legend is applicable only to US Government
 contracts under FAR:
  
                    RESTRICTED RIGHTS LEGEND
  
 Use, reproduction and disclosure by the US Government is
 subject to restrictions as set forth in subparagraphs (a)
 and (c) of the Commercial Computer Software - Restricted
 Rights clause in FAR 52.227-19.
  
 Gaussian, Inc.
 340 Quinnipiac St., Bldg. 40, Wallingford CT 06492
  
  
 ---------------------------------------------------------------
 Warning -- This program may not be used in any manner that
 competes with the business of Gaussian, Inc. or will provide
 assistance to any competitor of Gaussian, Inc.  The licensee
 of this program is prohibited from giving any competitor of
 Gaussian, Inc. access to this program.  By using this program,
 the user acknowledges that Gaussian, Inc. is engaged in the
 business of creating and licensing software in the field of
 computational chemistry and represents and warrants to the
 licensee that it is not a competitor of Gaussian, Inc. and that
 it will not use this program in any manner prohibited above.
 ---------------------------------------------------------------
  

 Cite this work as:
 Gaussian 16, Revision A.03,
 M. J. Frisch, G. W. Trucks, H. B. Schlegel, G. E. Scuseria, 
 M. A. Robb, J. R. Cheeseman, G. Scalmani, V. Barone, 
 G. A. Petersson, H. Nakatsuji, X. Li, M. Caricato, A. V. Marenich, 
 J. Bloino, B. G. Janesko, R. Gomperts, B. Mennucci, H. P. Hratchian, 
 J. V. Ortiz, A. F. Izmaylov, J. L. Sonnenberg, D. Williams-Young, 
 F. Ding, F. Lipparini, F. Egidi, J. Goings, B. Peng, A. Petrone, 
 T. Henderson, D. Ranasinghe, V. G. Zakrzewski, J. Gao, N. Rega, 
 G. Zheng, W. Liang, M. Hada, M. Ehara, K. Toyota, R. Fukuda, 
 J. Hasegawa, M. Ishida, T. Nakajima, Y. Honda, O. Kitao, H. Nakai, 
 T. Vreven, K. Throssell, J. A. Montgomery, Jr., J. E. Peralta, 
 F. Ogliaro, M. J. Bearpark, J. J. Heyd, E. N. Brothers, K. N. Kudin, 
 V. N. Staroverov, T. A. Keith, R. Kobayashi, J. Normand, 
 K. Raghavachari, A. P. Rendell, J. C. Burant, S. S. Iyengar, 
 J. Tomasi, M. Cossi, J. M. Millam, M. Klene, C. Adamo, R. Cammi, 
 J. W. Ochterski, R. L. Martin, K. Morokuma, O. Farkas, 
 J. B. Foresman, and D. J. Fox, Gaussian, Inc., Wallingford CT, 2016.
 
 ******************************************
 Gaussian 16:  EM64L-G16RevA.03 25-Dec-2016
                29-Jan-2019 
 ******************************************
 ----------------------------------------------------------------------
 #m062x/6-311+g(2df,2p) Opt=(ModRedun,Loose,maxcycle=1000) Int(Grid=SG1
 ) freq
 ----------------------------------------------------------------------
 1/6=1000,7=-1,18=120,19=15,26=2,38=1/1,3;
 2/9=110,12=2,17=6,18=5,40=1/2;
 3/5=4,6=6,7=214,11=2,25=1,30=1,71=1,74=-55,75=1/1,2,3;
 4//1;
 5/5=2,38=5/2;
 6/7=2,8=2,9=2,10=2,28=1/1;
 7//1,2,3,16;
 1/6=1000,7=-1,18=20,19=15,26=2/3(2);
 2/9=110/2;
 99//99;
 2/9=110/2;
 3/5=4,6=6,7=214,11=2,25=1,30=1,71=1,74=-55,75=1/1,2,3;
 4/5=5,16=3,69=1/1;
 5/5=2,38=5/2;
 7//1,2,3,16;
 1/6=1000,7=-1,18=20,19=15,26=2/3(-5);
 2/9=110/2;
 6/7=2,8=2,9=2,10=2,19=2,28=1/1;
 99/9=1/99;
 -----
 Title
 -----
 Symbolic Z-matrix:
 Charge =  0 Multiplicity = 2
 C                    -9.24453   1.0618   -0.16857 
 C                    -8.73952   0.27782   0.86501 
 C                    -8.3844    1.86691  -0.90806 
 C                    -7.0194    1.88625  -0.61118 
 C                    -6.48244   1.10396   0.4319 
 C                    -7.37259   0.29758   1.16251 
 H                    -8.77153   2.48056  -1.71699 
 H                    -6.36347   2.52067  -1.20518 
 H                    -7.02427  -0.33029   1.97921 
 C                    -4.96555   1.16106   0.71287 
 C                    -4.48689   2.45544   1.09786 
 C                    -4.19097   0.52153  -0.31652 
 H                    -4.91172   0.47034   1.64277 
 C                    -3.3004    2.99796   0.59891 
 H                    -5.06464   3.04193   1.81237 
 C                    -3.00593   1.07056  -0.81765 
 H                    -4.53069  -0.43863  -0.70884 
 C                    -2.55903   2.30217  -0.34903 
 H                    -1.64106   2.73568  -0.73485 
 H                    -2.44111   0.53798  -1.57846 
 O                    -4.55428  -0.11251   2.36493 
 O                    -4.85972   0.39938   3.69651 
 H                    -3.98688   0.80219   3.85684 
 H                    -10.30676   1.04446  -0.39692 
 H                    -9.40871  -0.35266   1.44511 
 
 The following ModRedundant input section has been read:
 B      13      21 F                                                           
 

 GradGradGradGradGradGradGradGradGradGradGradGradGradGradGradGradGradGrad
 Berny optimization.
 Initialization pass.
                           ----------------------------
                           !    Initial Parameters    !
                           ! (Angstroms and Degrees)  !
 --------------------------                            --------------------------
 ! Name  Definition              Value          Derivative Info.                !
 --------------------------------------------------------------------------------
 ! R1    R(1,2)                  1.3921         estimate D2E/DX2                !
 ! R2    R(1,3)                  1.391          estimate D2E/DX2                !
 ! R3    R(1,24)                 1.0866         estimate D2E/DX2                !
 ! R4    R(2,6)                  1.3991         estimate D2E/DX2                !
 ! R5    R(2,25)                 1.0871         estimate D2E/DX2                !
 ! R6    R(3,4)                  1.397          estimate D2E/DX2                !
 ! R7    R(3,7)                  1.0866         estimate D2E/DX2                !
 ! R8    R(4,5)                  1.4101         estimate D2E/DX2                !
 ! R9    R(4,8)                  1.0888         estimate D2E/DX2                !
 ! R10   R(5,6)                  1.4058         estimate D2E/DX2                !
 ! R11   R(5,10)                 1.5437         estimate D2E/DX2                !
 ! R12   R(6,9)                  1.0874         estimate D2E/DX2                !
 ! R13   R(10,11)                1.4327         estimate D2E/DX2                !
 ! R14   R(10,12)                1.4383         estimate D2E/DX2                !
 ! R15   R(10,13)                1.1596         estimate D2E/DX2                !
 ! R16   R(11,14)                1.3968         estimate D2E/DX2                !
 ! R17   R(11,15)                1.0901         estimate D2E/DX2                !
 ! R18   R(12,16)                1.3989         estimate D2E/DX2                !
 ! R19   R(12,17)                1.0914         estimate D2E/DX2                !
 ! R20   R(13,21)                0.9945         Frozen                          !
 ! R21   R(14,18)                1.3901         estimate D2E/DX2                !
 ! R22   R(16,18)                1.3915         estimate D2E/DX2                !
 ! R23   R(16,20)                1.087          estimate D2E/DX2                !
 ! R24   R(18,19)                1.086          estimate D2E/DX2                !
 ! R25   R(21,22)                1.4589         estimate D2E/DX2                !
 ! R26   R(22,23)                0.9746         estimate D2E/DX2                !
 ! A1    A(2,1,3)              119.7589         estimate D2E/DX2                !
 ! A2    A(2,1,24)             120.1097         estimate D2E/DX2                !
 ! A3    A(3,1,24)             120.1314         estimate D2E/DX2                !
 ! A4    A(1,2,6)              120.2888         estimate D2E/DX2                !
 ! A5    A(1,2,25)             119.966          estimate D2E/DX2                !
 ! A6    A(6,2,25)             119.7452         estimate D2E/DX2                !
 ! A7    A(1,3,4)              119.9478         estimate D2E/DX2                !
 ! A8    A(1,3,7)              120.1536         estimate D2E/DX2                !
 ! A9    A(4,3,7)              119.8986         estimate D2E/DX2                !
 ! A10   A(3,4,5)              121.4386         estimate D2E/DX2                !
 ! A11   A(3,4,8)              118.7332         estimate D2E/DX2                !
 ! A12   A(5,4,8)              119.8281         estimate D2E/DX2                !
 ! A13   A(4,5,6)              117.4864         estimate D2E/DX2                !
 ! A14   A(4,5,10)             119.2283         estimate D2E/DX2                !
 ! A15   A(6,5,10)             123.284          estimate D2E/DX2                !
 ! A16   A(2,6,5)              121.0793         estimate D2E/DX2                !
 ! A17   A(2,6,9)              117.6775         estimate D2E/DX2                !
 ! A18   A(5,6,9)              121.243          estimate D2E/DX2                !
 ! A19   A(5,10,11)            114.2423         estimate D2E/DX2                !
 ! A20   A(5,10,12)            112.4868         estimate D2E/DX2                !
 ! A21   A(5,10,13)             99.7606         estimate D2E/DX2                !
 ! A22   A(11,10,12)           114.4631         estimate D2E/DX2                !
 ! A23   A(11,10,13)           107.8867         estimate D2E/DX2                !
 ! A24   A(12,10,13)           106.5038         estimate D2E/DX2                !
 ! A25   A(10,11,14)           122.5948         estimate D2E/DX2                !
 ! A26   A(10,11,15)           119.0206         estimate D2E/DX2                !
 ! A27   A(14,11,15)           118.3836         estimate D2E/DX2                !
 ! A28   A(10,12,16)           122.5544         estimate D2E/DX2                !
 ! A29   A(10,12,17)           118.7382         estimate D2E/DX2                !
 ! A30   A(16,12,17)           118.6971         estimate D2E/DX2                !
 ! A31   A(10,13,21)           161.4598         estimate D2E/DX2                !
 ! A32   A(11,14,18)           120.1462         estimate D2E/DX2                !
 ! A33   A(12,16,18)           119.9216         estimate D2E/DX2                !
 ! A34   A(12,16,20)           119.9098         estimate D2E/DX2                !
 ! A35   A(18,16,20)           120.1665         estimate D2E/DX2                !
 ! A36   A(14,18,16)           120.0929         estimate D2E/DX2                !
 ! A37   A(14,18,19)           119.5549         estimate D2E/DX2                !
 ! A38   A(16,18,19)           120.3406         estimate D2E/DX2                !
 ! A39   A(13,21,22)           112.4513         estimate D2E/DX2                !
 ! A40   A(21,22,23)            96.1809         estimate D2E/DX2                !
 ! D1    D(3,1,2,6)              0.0424         estimate D2E/DX2                !
 ! D2    D(3,1,2,25)          -179.9994         estimate D2E/DX2                !
 ! D3    D(24,1,2,6)          -179.9797         estimate D2E/DX2                !
 ! D4    D(24,1,2,25)           -0.0216         estimate D2E/DX2                !
 ! D5    D(2,1,3,4)             -0.0223         estimate D2E/DX2                !
 ! D6    D(2,1,3,7)            179.9289         estimate D2E/DX2                !
 ! D7    D(24,1,3,4)           179.9999         estimate D2E/DX2                !
 ! D8    D(24,1,3,7)            -0.049          estimate D2E/DX2                !
 ! D9    D(1,2,6,5)              0.0591         estimate D2E/DX2                !
 ! D10   D(1,2,6,9)            179.9198         estimate D2E/DX2                !
 ! D11   D(25,2,6,5)          -179.8991         estimate D2E/DX2                !
 ! D12   D(25,2,6,9)            -0.0384         estimate D2E/DX2                !
 ! D13   D(1,3,4,5)             -0.1            estimate D2E/DX2                !
 ! D14   D(1,3,4,8)            179.7618         estimate D2E/DX2                !
 ! D15   D(7,3,4,5)            179.9488         estimate D2E/DX2                !
 ! D16   D(7,3,4,8)             -0.1895         estimate D2E/DX2                !
 ! D17   D(3,4,5,6)              0.1951         estimate D2E/DX2                !
 ! D18   D(3,4,5,10)           179.8039         estimate D2E/DX2                !
 ! D19   D(8,4,5,6)           -179.6652         estimate D2E/DX2                !
 ! D20   D(8,4,5,10)            -0.0564         estimate D2E/DX2                !
 ! D21   D(4,5,6,2)             -0.1741         estimate D2E/DX2                !
 ! D22   D(4,5,6,9)            179.9702         estimate D2E/DX2                !
 ! D23   D(10,5,6,2)          -179.7657         estimate D2E/DX2                !
 ! D24   D(10,5,6,9)             0.3786         estimate D2E/DX2                !
 ! D25   D(4,5,10,11)           61.8257         estimate D2E/DX2                !
 ! D26   D(4,5,10,12)          -70.8563         estimate D2E/DX2                !
 ! D27   D(4,5,10,13)          176.613          estimate D2E/DX2                !
 ! D28   D(6,5,10,11)         -118.5894         estimate D2E/DX2                !
 ! D29   D(6,5,10,12)          108.7285         estimate D2E/DX2                !
 ! D30   D(6,5,10,13)           -3.8022         estimate D2E/DX2                !
 ! D31   D(5,10,11,14)        -137.1088         estimate D2E/DX2                !
 ! D32   D(5,10,11,15)          43.2479         estimate D2E/DX2                !
 ! D33   D(12,10,11,14)         -5.3731         estimate D2E/DX2                !
 ! D34   D(12,10,11,15)        174.9836         estimate D2E/DX2                !
 ! D35   D(13,10,11,14)        112.9717         estimate D2E/DX2                !
 ! D36   D(13,10,11,15)        -66.6716         estimate D2E/DX2                !
 ! D37   D(5,10,12,16)         137.6869         estimate D2E/DX2                !
 ! D38   D(5,10,12,17)         -43.4968         estimate D2E/DX2                !
 ! D39   D(11,10,12,16)          5.1135         estimate D2E/DX2                !
 ! D40   D(11,10,12,17)       -176.0702         estimate D2E/DX2                !
 ! D41   D(13,10,12,16)       -114.0119         estimate D2E/DX2                !
 ! D42   D(13,10,12,17)         64.8044         estimate D2E/DX2                !
 ! D43   D(5,10,13,21)         165.1674         estimate D2E/DX2                !
 ! D44   D(11,10,13,21)        -75.2746         estimate D2E/DX2                !
 ! D45   D(12,10,13,21)         48.0554         estimate D2E/DX2                !
 ! D46   D(10,11,14,18)          2.6019         estimate D2E/DX2                !
 ! D47   D(15,11,14,18)       -177.7526         estimate D2E/DX2                !
 ! D48   D(10,12,16,18)         -2.0762         estimate D2E/DX2                !
 ! D49   D(10,12,16,20)        178.4564         estimate D2E/DX2                !
 ! D50   D(17,12,16,18)        179.107          estimate D2E/DX2                !
 ! D51   D(17,12,16,20)         -0.3604         estimate D2E/DX2                !
 ! D52   D(10,13,21,22)        120.9474         estimate D2E/DX2                !
 ! D53   D(11,14,18,16)          0.87           estimate D2E/DX2                !
 ! D54   D(11,14,18,19)        179.6339         estimate D2E/DX2                !
 ! D55   D(12,16,18,14)         -1.1183         estimate D2E/DX2                !
 ! D56   D(12,16,18,19)       -179.8724         estimate D2E/DX2                !
 ! D57   D(20,16,18,14)        178.3478         estimate D2E/DX2                !
 ! D58   D(20,16,18,19)         -0.4064         estimate D2E/DX2                !
 ! D59   D(13,21,22,23)        -99.9022         estimate D2E/DX2                !
 --------------------------------------------------------------------------------
 Trust Radius=3.00D-01 FncErr=1.00D-05 GrdErr=1.00D-04 EigMax=2.50D+02 EigMin=1.00D-04
 Number of steps in this run=    150 maximum allowed number of steps=    150.
 GradGradGradGradGradGradGradGradGradGradGradGradGradGradGradGradGradGrad

                          Input orientation:                          
 ---------------------------------------------------------------------
 Center     Atomic      Atomic             Coordinates (Angstroms)
 Number     Number       Type             X           Y           Z
 ---------------------------------------------------------------------
      1          6           0       -9.244530    1.061800   -0.168570
      2          6           0       -8.739520    0.277820    0.865010
      3          6           0       -8.384400    1.866910   -0.908060
      4          6           0       -7.019400    1.886250   -0.611180
      5          6           0       -6.482440    1.103960    0.431900
      6          6           0       -7.372590    0.297580    1.162510
      7          1           0       -8.771530    2.480560   -1.716990
      8          1           0       -6.363470    2.520670   -1.205180
      9          1           0       -7.024270   -0.330290    1.979210
     10          6           0       -4.965550    1.161060    0.712870
     11          6           0       -4.486890    2.455440    1.097860
     12          6           0       -4.190970    0.521530   -0.316520
     13          1           0       -4.911720    0.470340    1.642770
     14          6           0       -3.300400    2.997960    0.598910
     15          1           0       -5.064640    3.041930    1.812370
     16          6           0       -3.005930    1.070560   -0.817650
     17          1           0       -4.530690   -0.438630   -0.708840
     18          6           0       -2.559030    2.302170   -0.349030
     19          1           0       -1.641060    2.735680   -0.734850
     20          1           0       -2.441110    0.537980   -1.578460
     21          8           0       -4.554280   -0.112510    2.364930
     22          8           0       -4.859720    0.399380    3.696510
     23          1           0       -3.986880    0.802190    3.856840
     24          1           0      -10.306760    1.044460   -0.396920
     25          1           0       -9.408710   -0.352660    1.445110
 ---------------------------------------------------------------------
                    Distance matrix (angstroms):
                    1          2          3          4          5
     1  C    0.000000
     2  C    1.392102   0.000000
     3  C    1.390996   2.407300   0.000000
     4  C    2.413882   2.779388   1.397046   0.000000
     5  C    2.826921   2.442233   2.448477   1.410078   0.000000
     6  C    2.420737   1.399069   2.788156   2.407196   1.405847
     7  H    2.152722   3.394085   1.086648   2.155453   3.428219
     8  H    3.391662   3.868033   2.144724   1.088838   2.168237
     9  H    3.388278   2.133851   3.874786   3.409281   2.178261
    10  C    4.369950   3.878931   3.848918   2.548982   1.543749
    11  C    5.116758   4.783420   4.422744   3.107797   2.500444
    12  C    5.084511   4.705817   4.443515   3.154251   2.479958
    13  H    4.733288   3.910758   4.529531   3.395203   2.082028
    14  C    6.298446   6.087199   5.421927   4.065855   3.706819
    15  H    5.031552   4.694948   4.449968   3.321186   2.769762
    16  C    6.272281   6.027755   5.437857   4.100722   3.694403
    17  H    4.976291   4.550226   4.495140   3.407093   2.736823
    18  C    6.801985   6.615916   5.868296   4.487384   4.175968
    19  H    7.806107   7.680414   6.801279   5.446409   5.240494
    20  H    6.967690   6.760784   6.126842   4.869723   4.549091
    21  O    5.458578   4.462998   5.412983   4.350757   2.989014
    22  O    5.882534   4.804687   5.981562   5.042935   3.713130
    23  H    6.626780   5.640354   6.570851   5.507682   4.248423
    24  H    1.086636   2.153241   2.152477   3.400184   3.913554
    25  H    2.152119   1.087123   3.393098   3.866503   3.422191
                    6          7          8          9         10
     6  C    0.000000
     7  H    3.874785   0.000000
     8  H    3.400942   2.462176   0.000000
     9  H    1.087450   4.961420   4.324924   0.000000
    10  C    2.596462   4.704337   2.735258   2.840083   0.000000
    11  C    3.603860   5.126612   2.971498   3.869802   1.432743
    12  C    3.515735   5.175002   3.083186   3.744805   1.438269
    13  H    2.513240   5.497918   3.797664   2.284090   1.159615
    14  C    4.918580   5.963586   3.586774   5.181668   2.481917
    15  H    3.644229   5.149034   3.326301   3.903825   2.180915
    16  C    4.856568   6.003254   3.677781   5.092334   2.488130
    17  H    3.481430   5.246214   3.516091   3.668146   2.183889
    18  C    5.428950   6.363827   3.905701   5.682334   2.867246
    19  H    6.511125   7.202311   4.750642   6.763523   3.953170
    20  H    5.647141   6.623219   4.410817   5.866538   3.465721
    21  O    3.091417   6.416485   4.790876   2.509394   2.126129
    22  O    3.570159   6.995681   5.548667   2.857764   3.081147
    23  H    4.356269   7.535077   5.850248   3.746164   3.312270
    24  H    3.405731   2.482317   4.287425   4.279097   5.456533
    25  H    2.156029   4.293252   4.955154   2.443628   4.750705
                   11         12         13         14         15
    11  C    0.000000
    12  C    2.414135   0.000000
    13  H    2.101911   2.088281   0.000000
    14  C    1.396795   2.786365   3.174092   0.000000
    15  H    1.090087   3.412900   2.581709   2.141719   0.000000
    16  C    2.789321   1.398887   3.169537   2.410026   3.878349
    17  H    3.411997   1.091436   2.549800   3.877367   4.330808
    18  C    2.415290   2.415567   3.585808   1.390088   3.390719
    19  H    3.396485   3.402867   4.634874   2.145021   4.278203
    20  H    3.876152   2.157492   4.060149   3.395706   4.964917
    21  O    2.864328   2.779240   0.994481   3.790259   3.242882
    22  O    3.334571   4.070204   2.055623   4.333500   3.251930
    23  H    3.255029   4.187763   2.422305   3.988329   3.218363
    24  H    6.172205   6.138632   5.796241   7.341452   6.029152
    25  H    5.677175   5.576052   4.575950   7.018131   5.525311
                   16         17         18         19         20
    16  C    0.000000
    17  H    2.148112   0.000000
    18  C    1.391470   3.395422   0.000000
    19  H    2.154611   4.292654   1.086028   0.000000
    20  H    1.086966   2.465025   2.153548   2.486291   0.000000
    21  O    3.731737   3.091112   4.144548   5.119343   4.520946
    22  O    4.925917   4.496402   5.027940   5.954412   5.804670
    23  H    4.783842   4.762436   4.688074   5.506802   5.657004
    24  H    7.312989   5.971586   7.849296   8.835654   7.970007
    25  H    6.938388   5.333101   7.562088   8.638661   7.647396
                   21         22         23         24         25
    21  O    0.000000
    22  O    1.458914   0.000000
    23  H    1.839678   0.974583   0.000000
    24  H    6.485169   6.844161   7.621945   0.000000
    25  H    4.946638   5.131050   6.045359   2.480224   0.000000
 Stoichiometry    C12H11O2(2)
 Framework group  C1[X(C12H11O2)]
 Deg. of freedom    69
 Full point group                 C1      NOp   1
 Largest Abelian subgroup         C1      NOp   1
 Largest concise Abelian subgroup C1      NOp   1
                         Standard orientation:                         
 ---------------------------------------------------------------------
 Center     Atomic      Atomic             Coordinates (Angstroms)
 Number     Number       Type             X           Y           Z
 ---------------------------------------------------------------------
      1          6           0       -3.654975   -0.546979   -0.063893
      2          6           0       -3.147715    0.706557    0.266684
      3          6           0       -2.782029   -1.592975   -0.344477
      4          6           0       -1.401903   -1.382142   -0.294097
      5          6           0       -0.861960   -0.121915    0.035464
      6          6           0       -1.765574    0.917698    0.316698
      7          1           0       -3.171001   -2.574368   -0.602108
      8          1           0       -0.736691   -2.215766   -0.513486
      9          1           0       -1.415877    1.913633    0.578180
     10          6           0        0.671202    0.052842    0.080556
     11          6           0        1.327094   -0.181646   -1.171471
     12          6           0        1.268981   -0.621421    1.201558
     13          1           0        0.733043    1.188277    0.307868
     14          6           0        2.515596   -0.908300   -1.273817
     15          1           0        0.888634    0.225641   -2.082602
     16          6           0        2.456582   -1.352822    1.094123
     17          1           0        0.787666   -0.544016    2.178071
     18          6           0        3.081757   -1.483632   -0.142093
     19          1           0        4.002861   -2.051645   -0.233663
     20          1           0        2.884033   -1.824789    1.975048
     21          8           0        1.088035    2.079247    0.570823
     22          8           0        0.968073    3.064504   -0.498432
     23          1           0        1.892019    3.002652   -0.802256
     24          1           0       -4.728985   -0.707640   -0.102197
     25          1           0       -3.826894    1.526428    0.486602
 ---------------------------------------------------------------------
 Rotational constants (GHZ):           1.0327989           0.5259060           0.4021351
 Standard basis: 6-311+G(2df,2p) (5D, 7F)
 There are   645 symmetry adapted cartesian basis functions of A   symmetry.
 There are   575 symmetry adapted basis functions of A   symmetry.
   575 basis functions,   849 primitive gaussians,   645 cartesian basis functions
    50 alpha electrons       49 beta electrons
       nuclear repulsion energy       823.9293784430 Hartrees.
 NAtoms=   25 NActive=   25 NUniq=   25 SFac= 1.00D+00 NAtFMM=   60 NAOKFM=F Big=F
 Integral buffers will be    131072 words long.
 Raffenetti 2 integral format.
 Two-electron integral symmetry is turned on.
 One-electron integrals computed using PRISM.
 NBasis=   575 RedAO= T EigKep=  1.90D-06  NBF=   575
 NBsUse=   574 1.00D-06 EigRej=  8.45D-07 NBFU=   574
 ExpMin= 4.38D-02 ExpMax= 8.59D+03 ExpMxC= 1.30D+03 IAcc=2 IRadAn=         4 AccDes= 0.00D+00
 Harris functional with IExCor= 1009 and IRadAn=       4 diagonalized for initial guess.
 HarFok:  IExCor= 1009 AccDes= 0.00D+00 IRadAn=         4 IDoV= 1 UseB2=F ITyADJ=14
 ICtDFT=  3500011 ScaDFX=  1.000000  1.000000  1.000000  1.000000
 FoFCou: FMM=F IPFlag=           0 FMFlag=      100000 FMFlg1=           0
         NFxFlg=           0 DoJE=T BraDBF=F KetDBF=T FulRan=T
         wScrn=  0.000000 ICntrl=       500 IOpCl=  0 I1Cent=   200000004 NGrid=           0
         NMat0=    1 NMatS0=      1 NMatT0=    0 NMatD0=    1 NMtDS0=    0 NMtDT0=    0
 Petite list used in FoFCou.
 Initial guess <Sx>= 0.0000 <Sy>= 0.0000 <Sz>= 0.5000 <S**2>= 0.7500 S= 0.5000
 Requested convergence on RMS density matrix=1.00D-08 within 128 cycles.
 Requested convergence on MAX density matrix=1.00D-06.
 Requested convergence on             energy=1.00D-06.
 No special actions if energy rises.
 SCF Done:  E(UM062X) =  -613.994542430     A.U. after   20 cycles
            NFock= 20  Conv=0.89D-08     -V/T= 2.0039
 <Sx>= 0.0000 <Sy>= 0.0000 <Sz>= 0.5000 <S**2>= 0.7645 S= 0.5072
 <L.S>= 0.000000000000E+00
 Annihilation of the first spin contaminant:
 S**2 before annihilation     0.7645,   after     0.7501

 **********************************************************************

            Population analysis using the SCF density.

 **********************************************************************

 Orbital symmetries:
 Alpha Orbitals:
       Occupied  (A) (A) (A) (A) (A) (A) (A) (A) (A) (A) (A) (A)
                 (A) (A) (A) (A) (A) (A) (A) (A) (A) (A) (A) (A)
                 (A) (A) (A) (A) (A) (A) (A) (A) (A) (A) (A) (A)
                 (A) (A) (A) (A) (A) (A) (A) (A) (A) (A) (A) (A)
                 (A) (A)
       Virtual   (A) (A) (A) (A) (A) (A) (A) (A) (A) (A) (A) (A)
                 (A) (A) (A) (A) (A) (A) (A) (A) (A) (A) (A) (A)
                 (A) (A) (A) (A) (A) (A) (A) (A) (A) (A) (A) (A)
                 (A) (A) (A) (A) (A) (A) (A) (A) (A) (A) (A) (A)
                 (A) (A) (A) (A) (A) (A) (A) (A) (A) (A) (A) (A)
                 (A) (A) (A) (A) (A) (A) (A) (A) (A) (A) (A) (A)
                 (A) (A) (A) (A) (A) (A) (A) (A) (A) (A) (A) (A)
                 (A) (A) (A) (A) (A) (A) (A) (A) (A) (A) (A) (A)
                 (A) (A) (A) (A) (A) (A) (A) (A) (A) (A) (A) (A)
                 (A) (A) (A) (A) (A) (A) (A) (A) (A) (A) (A) (A)
                 (A) (A) (A) (A) (A) (A) (A) (A) (A) (A) (A) (A)
                 (A) (A) (A) (A) (A) (A) (A) (A) (A) (A) (A) (A)
                 (A) (A) (A) (A) (A) (A) (A) (A) (A) (A) (A) (A)
                 (A) (A) (A) (A) (A) (A) (A) (A) (A) (A) (A) (A)
                 (A) (A) (A) (A) (A) (A) (A) (A) (A) (A) (A) (A)
                 (A) (A) (A) (A) (A) (A) (A) (A) (A) (A) (A) (A)
                 (A) (A) (A) (A) (A) (A) (A) (A) (A) (A) (A) (A)
                 (A) (A) (A) (A) (A) (A) (A) (A) (A) (A) (A) (A)
                 (A) (A) (A) (A) (A) (A) (A) (A) (A) (A) (A) (A)
                 (A) (A) (A) (A) (A) (A) (A) (A) (A) (A) (A) (A)
                 (A) (A) (A) (A) (A) (A) (A) (A) (A) (A) (A) (A)
                 (A) (A) (A) (A) (A) (A) (A) (A) (A) (A) (A) (A)
                 (A) (A) (A) (A) (A) (A) (A) (A) (A) (A) (A) (A)
                 (A) (A) (A) (A) (A) (A) (A) (A) (A) (A) (A) (A)
                 (A) (A) (A) (A) (A) (A) (A) (A) (A) (A) (A) (A)
                 (A) (A) (A) (A) (A) (A) (A) (A) (A) (A) (A) (A)
                 (A) (A) (A) (A) (A) (A) (A) (A) (A) (A) (A) (A)
                 (A) (A) (A) (A) (A) (A) (A) (A) (A) (A) (A) (A)
                 (A) (A) (A) (A) (A) (A) (A) (A) (A) (A) (A) (A)
                 (A) (A) (A) (A) (A) (A) (A) (A) (A) (A) (A) (A)
                 (A) (A) (A) (A) (A) (A) (A) (A) (A) (A) (A) (A)
                 (A) (A) (A) (A) (A) (A) (A) (A) (A) (A) (A) (A)
                 (A) (A) (A) (A) (A) (A) (A) (A) (A) (A) (A) (A)
                 (A) (A) (A) (A) (A) (A) (A) (A) (A) (A) (A) (A)
                 (A) (A) (A) (A) (A) (A) (A) (A) (A) (A) (A) (A)
                 (A) (A) (A) (A) (A) (A) (A) (A) (A) (A) (A) (A)
                 (A) (A) (A) (A) (A) (A) (A) (A) (A) (A) (A) (A)
                 (A) (A) (A) (A) (A) (A) (A) (A) (A) (A) (A) (A)
                 (A) (A) (A) (A) (A) (A) (A) (A) (A) (A) (A) (A)
                 (A) (A) (A) (A) (A) (A) (A) (A) (A) (A) (A) (A)
                 (A) (A) (A) (A) (A) (A) (A) (A) (A) (A) (A) (A)
                 (A) (A) (A) (A) (A) (A) (A) (A) (A) (A) (A) (A)
                 (A) (A) (A) (A) (A) (A) (A) (A) (A) (A) (A) (A)
                 (A) (A) (A) (A) (A) (A) (A) (A)
 Beta  Orbitals:
       Occupied  (A) (A) (A) (A) (A) (A) (A) (A) (A) (A) (A) (A)
                 (A) (A) (A) (A) (A) (A) (A) (A) (A) (A) (A) (A)
                 (A) (A) (A) (A) (A) (A) (A) (A) (A) (A) (A) (A)
                 (A) (A) (A) (A) (A) (A) (A) (A) (A) (A) (A) (A)
                 (A)
       Virtual   (A) (A) (A) (A) (A) (A) (A) (A) (A) (A) (A) (A)
                 (A) (A) (A) (A) (A) (A) (A) (A) (A) (A) (A) (A)
                 (A) (A) (A) (A) (A) (A) (A) (A) (A) (A) (A) (A)
                 (A) (A) (A) (A) (A) (A) (A) (A) (A) (A) (A) (A)
                 (A) (A) (A) (A) (A) (A) (A) (A) (A) (A) (A) (A)
                 (A) (A) (A) (A) (A) (A) (A) (A) (A) (A) (A) (A)
                 (A) (A) (A) (A) (A) (A) (A) (A) (A) (A) (A) (A)
                 (A) (A) (A) (A) (A) (A) (A) (A) (A) (A) (A) (A)
                 (A) (A) (A) (A) (A) (A) (A) (A) (A) (A) (A) (A)
                 (A) (A) (A) (A) (A) (A) (A) (A) (A) (A) (A) (A)
                 (A) (A) (A) (A) (A) (A) (A) (A) (A) (A) (A) (A)
                 (A) (A) (A) (A) (A) (A) (A) (A) (A) (A) (A) (A)
                 (A) (A) (A) (A) (A) (A) (A) (A) (A) (A) (A) (A)
                 (A) (A) (A) (A) (A) (A) (A) (A) (A) (A) (A) (A)
                 (A) (A) (A) (A) (A) (A) (A) (A) (A) (A) (A) (A)
                 (A) (A) (A) (A) (A) (A) (A) (A) (A) (A) (A) (A)
                 (A) (A) (A) (A) (A) (A) (A) (A) (A) (A) (A) (A)
                 (A) (A) (A) (A) (A) (A) (A) (A) (A) (A) (A) (A)
                 (A) (A) (A) (A) (A) (A) (A) (A) (A) (A) (A) (A)
                 (A) (A) (A) (A) (A) (A) (A) (A) (A) (A) (A) (A)
                 (A) (A) (A) (A) (A) (A) (A) (A) (A) (A) (A) (A)
                 (A) (A) (A) (A) (A) (A) (A) (A) (A) (A) (A) (A)
                 (A) (A) (A) (A) (A) (A) (A) (A) (A) (A) (A) (A)
                 (A) (A) (A) (A) (A) (A) (A) (A) (A) (A) (A) (A)
                 (A) (A) (A) (A) (A) (A) (A) (A) (A) (A) (A) (A)
                 (A) (A) (A) (A) (A) (A) (A) (A) (A) (A) (A) (A)
                 (A) (A) (A) (A) (A) (A) (A) (A) (A) (A) (A) (A)
                 (A) (A) (A) (A) (A) (A) (A) (A) (A) (A) (A) (A)
                 (A) (A) (A) (A) (A) (A) (A) (A) (A) (A) (A) (A)
                 (A) (A) (A) (A) (A) (A) (A) (A) (A) (A) (A) (A)
                 (A) (A) (A) (A) (A) (A) (A) (A) (A) (A) (A) (A)
                 (A) (A) (A) (A) (A) (A) (A) (A) (A) (A) (A) (A)
                 (A) (A) (A) (A) (A) (A) (A) (A) (A) (A) (A) (A)
                 (A) (A) (A) (A) (A) (A) (A) (A) (A) (A) (A) (A)
                 (A) (A) (A) (A) (A) (A) (A) (A) (A) (A) (A) (A)
                 (A) (A) (A) (A) (A) (A) (A) (A) (A) (A) (A) (A)
                 (A) (A) (A) (A) (A) (A) (A) (A) (A) (A) (A) (A)
                 (A) (A) (A) (A) (A) (A) (A) (A) (A) (A) (A) (A)
                 (A) (A) (A) (A) (A) (A) (A) (A) (A) (A) (A) (A)
                 (A) (A) (A) (A) (A) (A) (A) (A) (A) (A) (A) (A)
                 (A) (A) (A) (A) (A) (A) (A) (A) (A) (A) (A) (A)
                 (A) (A) (A) (A) (A) (A) (A) (A) (A) (A) (A) (A)
                 (A) (A) (A) (A) (A) (A) (A) (A) (A) (A) (A) (A)
                 (A) (A) (A) (A) (A) (A) (A) (A) (A)
 The electronic state is 2-A.
 Alpha  occ. eigenvalues --  -19.68017 -19.65287 -10.59140 -10.57713 -10.57676
 Alpha  occ. eigenvalues --  -10.57424 -10.57225 -10.57109 -10.56816 -10.55515
 Alpha  occ. eigenvalues --  -10.55135 -10.54998 -10.54949 -10.54878  -1.23080
 Alpha  occ. eigenvalues --   -1.02853  -0.98007  -0.96300  -0.89217  -0.85985
 Alpha  occ. eigenvalues --   -0.84774  -0.83054  -0.73065  -0.70205  -0.69583
 Alpha  occ. eigenvalues --   -0.67517  -0.62326  -0.60941  -0.59024  -0.56925
 Alpha  occ. eigenvalues --   -0.54662  -0.54171  -0.52449  -0.51688  -0.50020
 Alpha  occ. eigenvalues --   -0.49238  -0.49018  -0.46842  -0.45260  -0.44488
 Alpha  occ. eigenvalues --   -0.43761  -0.41312  -0.40610  -0.38844  -0.37166
 Alpha  occ. eigenvalues --   -0.34008  -0.33584  -0.31408  -0.30647  -0.29180
 Alpha virt. eigenvalues --   -0.04597  -0.01330   0.00437   0.00709   0.01569
 Alpha virt. eigenvalues --    0.02379   0.02597   0.02918   0.03186   0.04210
 Alpha virt. eigenvalues --    0.04800   0.04909   0.05492   0.06536   0.06919
 Alpha virt. eigenvalues --    0.07634   0.07868   0.09044   0.09817   0.10146
 Alpha virt. eigenvalues --    0.10323   0.10912   0.11476   0.11817   0.12031
 Alpha virt. eigenvalues --    0.12973   0.13605   0.13980   0.14825   0.15007
 Alpha virt. eigenvalues --    0.15217   0.15808   0.16487   0.16765   0.17282
 Alpha virt. eigenvalues --    0.17403   0.18385   0.18836   0.19150   0.19570
 Alpha virt. eigenvalues --    0.20046   0.20123   0.20711   0.20839   0.21264
 Alpha virt. eigenvalues --    0.21336   0.21934   0.22067   0.22385   0.22570
 Alpha virt. eigenvalues --    0.23224   0.23745   0.24063   0.24844   0.24998
 Alpha virt. eigenvalues --    0.25598   0.26056   0.26506   0.26992   0.27048
 Alpha virt. eigenvalues --    0.27610   0.27759   0.29258   0.29623   0.29882
 Alpha virt. eigenvalues --    0.31015   0.31306   0.32589   0.32744   0.33711
 Alpha virt. eigenvalues --    0.34100   0.34770   0.35126   0.35689   0.36442
 Alpha virt. eigenvalues --    0.37913   0.38698   0.41141   0.42786   0.44616
 Alpha virt. eigenvalues --    0.45341   0.45676   0.47751   0.48882   0.49482
 Alpha virt. eigenvalues --    0.50631   0.51063   0.51890   0.53070   0.53807
 Alpha virt. eigenvalues --    0.54679   0.54856   0.55262   0.55922   0.56410
 Alpha virt. eigenvalues --    0.56930   0.57244   0.57960   0.58625   0.59156
 Alpha virt. eigenvalues --    0.59665   0.60291   0.60795   0.62146   0.62858
 Alpha virt. eigenvalues --    0.63427   0.64192   0.64690   0.65035   0.65194
 Alpha virt. eigenvalues --    0.66365   0.66673   0.66829   0.67173   0.67886
 Alpha virt. eigenvalues --    0.68351   0.68654   0.69097   0.69912   0.70171
 Alpha virt. eigenvalues --    0.70679   0.71224   0.72166   0.72439   0.73207
 Alpha virt. eigenvalues --    0.73789   0.74486   0.74851   0.75334   0.76040
 Alpha virt. eigenvalues --    0.77190   0.77275   0.77930   0.78381   0.78750
 Alpha virt. eigenvalues --    0.79916   0.81191   0.82189   0.82651   0.83162
 Alpha virt. eigenvalues --    0.83748   0.84312   0.84837   0.85386   0.86887
 Alpha virt. eigenvalues --    0.87687   0.88892   0.90082   0.91851   0.93174
 Alpha virt. eigenvalues --    0.95867   0.96633   0.97323   0.98159   0.99982
 Alpha virt. eigenvalues --    1.00573   1.01435   1.02632   1.02970   1.04539
 Alpha virt. eigenvalues --    1.05561   1.06789   1.08171   1.08941   1.09561
 Alpha virt. eigenvalues --    1.10061   1.10711   1.12332   1.14313   1.15323
 Alpha virt. eigenvalues --    1.15564   1.16311   1.16749   1.17731   1.17852
 Alpha virt. eigenvalues --    1.19546   1.20154   1.20871   1.23132   1.23890
 Alpha virt. eigenvalues --    1.25157   1.26499   1.27658   1.28202   1.28802
 Alpha virt. eigenvalues --    1.30325   1.30934   1.31561   1.32272   1.32781
 Alpha virt. eigenvalues --    1.33607   1.33967   1.34501   1.34670   1.36154
 Alpha virt. eigenvalues --    1.37328   1.38025   1.38349   1.39177   1.39769
 Alpha virt. eigenvalues --    1.40668   1.41472   1.41795   1.42366   1.43484
 Alpha virt. eigenvalues --    1.43820   1.45132   1.45409   1.47419   1.48378
 Alpha virt. eigenvalues --    1.48974   1.49688   1.50485   1.51886   1.53190
 Alpha virt. eigenvalues --    1.53490   1.54851   1.58003   1.59255   1.61828
 Alpha virt. eigenvalues --    1.63501   1.65312   1.66140   1.68241   1.69235
 Alpha virt. eigenvalues --    1.69698   1.72050   1.72905   1.73748   1.74500
 Alpha virt. eigenvalues --    1.75671   1.76302   1.78460   1.81299   1.82806
 Alpha virt. eigenvalues --    1.85058   1.85735   1.88997   1.89989   1.91769
 Alpha virt. eigenvalues --    1.93561   1.99209   1.99823   2.02162   2.02816
 Alpha virt. eigenvalues --    2.03636   2.07141   2.09205   2.16559   2.21134
 Alpha virt. eigenvalues --    2.28376   2.29213   2.35608   2.39477   2.49197
 Alpha virt. eigenvalues --    2.50311   2.52802   2.54578   2.55980   2.57834
 Alpha virt. eigenvalues --    2.60228   2.60440   2.61068   2.62695   2.63915
 Alpha virt. eigenvalues --    2.65559   2.67775   2.69403   2.70996   2.71219
 Alpha virt. eigenvalues --    2.73144   2.73906   2.74745   2.75165   2.75643
 Alpha virt. eigenvalues --    2.76484   2.77398   2.78035   2.78269   2.79180
 Alpha virt. eigenvalues --    2.79794   2.81012   2.81224   2.81434   2.81835
 Alpha virt. eigenvalues --    2.82265   2.84005   2.84234   2.85148   2.85546
 Alpha virt. eigenvalues --    2.86232   2.87642   2.88037   2.88183   2.89074
 Alpha virt. eigenvalues --    2.90365   2.90673   2.91046   2.92709   2.93325
 Alpha virt. eigenvalues --    2.94470   2.96341   2.98045   2.98786   2.99695
 Alpha virt. eigenvalues --    3.01903   3.02302   3.03324   3.07062   3.08419
 Alpha virt. eigenvalues --    3.09588   3.10255   3.11483   3.12769   3.13390
 Alpha virt. eigenvalues --    3.15035   3.15734   3.16505   3.17115   3.17733
 Alpha virt. eigenvalues --    3.17985   3.18916   3.19643   3.20347   3.20946
 Alpha virt. eigenvalues --    3.21993   3.23451   3.24528   3.26066   3.26391
 Alpha virt. eigenvalues --    3.27901   3.28279   3.29791   3.30522   3.30825
 Alpha virt. eigenvalues --    3.32039   3.33587   3.34463   3.35375   3.36676
 Alpha virt. eigenvalues --    3.37152   3.38670   3.39746   3.40850   3.41183
 Alpha virt. eigenvalues --    3.41537   3.42838   3.44257   3.44882   3.45306
 Alpha virt. eigenvalues --    3.46022   3.46647   3.47858   3.48906   3.51401
 Alpha virt. eigenvalues --    3.51939   3.53024   3.55068   3.55929   3.57196
 Alpha virt. eigenvalues --    3.58463   3.59251   3.61459   3.61878   3.63037
 Alpha virt. eigenvalues --    3.63785   3.66286   3.68312   3.68984   3.69534
 Alpha virt. eigenvalues --    3.69799   3.70732   3.72308   3.73598   3.74471
 Alpha virt. eigenvalues --    3.75408   3.76586   3.77405   3.78865   3.80000
 Alpha virt. eigenvalues --    3.80372   3.80771   3.81006   3.82805   3.83765
 Alpha virt. eigenvalues --    3.84638   3.85610   3.86525   3.89710   3.90778
 Alpha virt. eigenvalues --    3.93400   3.94275   3.95179   3.98203   3.99130
 Alpha virt. eigenvalues --    3.99536   4.01537   4.03291   4.04632   4.04779
 Alpha virt. eigenvalues --    4.06347   4.07763   4.09296   4.10171   4.10944
 Alpha virt. eigenvalues --    4.13244   4.13548   4.15453   4.17555   4.19324
 Alpha virt. eigenvalues --    4.20244   4.22046   4.23652   4.25340   4.26260
 Alpha virt. eigenvalues --    4.28695   4.29972   4.32831   4.34220   4.35061
 Alpha virt. eigenvalues --    4.35685   4.37002   4.37563   4.38264   4.39542
 Alpha virt. eigenvalues --    4.40868   4.42035   4.42724   4.43903   4.45082
 Alpha virt. eigenvalues --    4.45855   4.46463   4.48574   4.48700   4.50284
 Alpha virt. eigenvalues --    4.50720   4.52706   4.53759   4.55735   4.57526
 Alpha virt. eigenvalues --    4.58802   4.61096   4.62457   4.65507   4.66219
 Alpha virt. eigenvalues --    4.66969   4.69574   4.72539   4.73485   4.74062
 Alpha virt. eigenvalues --    4.77943   4.82612   4.84663   4.86128   4.87651
 Alpha virt. eigenvalues --    4.91759   4.94127   4.95143   4.96212   5.00880
 Alpha virt. eigenvalues --    5.03345   5.04685   5.07030   5.08348   5.14850
 Alpha virt. eigenvalues --    5.16807   5.17696   5.21796   5.22289   5.23880
 Alpha virt. eigenvalues --    5.25751   5.28002   5.31708   5.32201   5.33977
 Alpha virt. eigenvalues --    5.37139   5.41800   5.44774   5.49636   5.50951
 Alpha virt. eigenvalues --    5.60042   5.62581   5.63693   5.65420   5.67446
 Alpha virt. eigenvalues --    5.70634   5.73167   5.74228   5.77172   5.83819
 Alpha virt. eigenvalues --    5.85272   5.88842   5.96201   6.11695   6.12350
 Alpha virt. eigenvalues --    6.30440   6.46455   6.66144   6.87130   6.90264
 Alpha virt. eigenvalues --    6.94608   7.08584   7.20039   7.27557   7.33129
 Alpha virt. eigenvalues --    7.42021   7.44006   7.68437   7.76573   8.03060
 Alpha virt. eigenvalues --   23.91984  23.98273  24.35689  24.46483  24.46979
 Alpha virt. eigenvalues --   24.50818  24.63634  24.67791  24.69587  24.73011
 Alpha virt. eigenvalues --   25.02714  25.15297  50.03552  50.14647
  Beta  occ. eigenvalues --  -19.68014 -19.65253 -10.58077 -10.57690 -10.57612
  Beta  occ. eigenvalues --  -10.57433 -10.57226 -10.57144 -10.56742 -10.55513
  Beta  occ. eigenvalues --  -10.55135 -10.54997 -10.54948 -10.54878  -1.23013
  Beta  occ. eigenvalues --   -1.02695  -0.97628  -0.95963  -0.88837  -0.84841
  Beta  occ. eigenvalues --   -0.84710  -0.82823  -0.72690  -0.69555  -0.69208
  Beta  occ. eigenvalues --   -0.67147  -0.61887  -0.60252  -0.58810  -0.56858
  Beta  occ. eigenvalues --   -0.53978  -0.53750  -0.52258  -0.51423  -0.49849
  Beta  occ. eigenvalues --   -0.49148  -0.48994  -0.45743  -0.44613  -0.44090
  Beta  occ. eigenvalues --   -0.43279  -0.41192  -0.40335  -0.38624  -0.37010
  Beta  occ. eigenvalues --   -0.33180  -0.31458  -0.30586  -0.29053
  Beta virt. eigenvalues --   -0.07415  -0.04576  -0.00638   0.00519   0.00694
  Beta virt. eigenvalues --    0.01568   0.02596   0.02842   0.02925   0.03249
  Beta virt. eigenvalues --    0.04205   0.04834   0.05080   0.05717   0.06811
  Beta virt. eigenvalues --    0.07045   0.07604   0.07851   0.09031   0.09845
  Beta virt. eigenvalues --    0.10161   0.10356   0.10983   0.11360   0.11964
  Beta virt. eigenvalues --    0.12179   0.13057   0.13630   0.14060   0.14765
  Beta virt. eigenvalues --    0.15039   0.15268   0.15841   0.16680   0.16714
  Beta virt. eigenvalues --    0.17203   0.17422   0.18569   0.18896   0.19331
  Beta virt. eigenvalues --    0.19680   0.20103   0.20237   0.20685   0.20858
  Beta virt. eigenvalues --    0.21273   0.21405   0.21712   0.22193   0.22309
  Beta virt. eigenvalues --    0.22643   0.23172   0.23726   0.24161   0.24931
  Beta virt. eigenvalues --    0.25005   0.25518   0.25986   0.26420   0.26889
  Beta virt. eigenvalues --    0.27356   0.27729   0.27812   0.29283   0.29605
  Beta virt. eigenvalues --    0.29882   0.31042   0.31265   0.32637   0.32682
  Beta virt. eigenvalues --    0.34252   0.34639   0.34779   0.35140   0.36060
  Beta virt. eigenvalues --    0.36427   0.37995   0.38587   0.41195   0.42893
  Beta virt. eigenvalues --    0.43795   0.44738   0.45440   0.46196   0.48663
  Beta virt. eigenvalues --    0.49040   0.50508   0.50935   0.51857   0.53094
  Beta virt. eigenvalues --    0.53922   0.54621   0.54812   0.55172   0.55687
  Beta virt. eigenvalues --    0.56244   0.56844   0.57112   0.57960   0.58596
  Beta virt. eigenvalues --    0.59083   0.59330   0.60113   0.60519   0.62162
  Beta virt. eigenvalues --    0.63218   0.63517   0.64185   0.64360   0.64974
  Beta virt. eigenvalues --    0.65094   0.66165   0.66583   0.66875   0.67111
  Beta virt. eigenvalues --    0.67841   0.68283   0.68640   0.69128   0.70024
  Beta virt. eigenvalues --    0.70223   0.70770   0.71336   0.72045   0.72365
  Beta virt. eigenvalues --    0.73242   0.73863   0.74245   0.74685   0.75110
  Beta virt. eigenvalues --    0.76055   0.77009   0.77448   0.77816   0.78563
  Beta virt. eigenvalues --    0.78997   0.79915   0.80981   0.81304   0.82404
  Beta virt. eigenvalues --    0.83083   0.83641   0.83910   0.84777   0.85286
  Beta virt. eigenvalues --    0.86850   0.87635   0.88943   0.90118   0.92010
  Beta virt. eigenvalues --    0.93351   0.95746   0.96662   0.97419   0.98303
  Beta virt. eigenvalues --    0.99976   1.00455   1.01367   1.02551   1.02912
  Beta virt. eigenvalues --    1.04476   1.05188   1.06623   1.08218   1.08892
  Beta virt. eigenvalues --    1.09327   1.10067   1.10792   1.12297   1.14271
  Beta virt. eigenvalues --    1.15329   1.15632   1.16234   1.16710   1.17662
  Beta virt. eigenvalues --    1.17752   1.19279   1.20189   1.20904   1.22713
  Beta virt. eigenvalues --    1.23487   1.25058   1.26136   1.27676   1.27793
  Beta virt. eigenvalues --    1.28753   1.30324   1.30737   1.31408   1.32218
  Beta virt. eigenvalues --    1.32734   1.33624   1.33699   1.34444   1.34598
  Beta virt. eigenvalues --    1.36488   1.37029   1.38002   1.38103   1.39125
  Beta virt. eigenvalues --    1.39814   1.40615   1.41222   1.41564   1.42246
  Beta virt. eigenvalues --    1.43022   1.43744   1.45013   1.45233   1.47293
  Beta virt. eigenvalues --    1.48128   1.48970   1.49665   1.50418   1.51564
  Beta virt. eigenvalues --    1.53081   1.53441   1.54707   1.57755   1.59144
  Beta virt. eigenvalues --    1.61599   1.63343   1.65194   1.66093   1.67711
  Beta virt. eigenvalues --    1.68781   1.69372   1.71905   1.72778   1.73491
  Beta virt. eigenvalues --    1.74306   1.75631   1.76279   1.78193   1.81139
  Beta virt. eigenvalues --    1.82755   1.85002   1.85653   1.88471   1.89974
  Beta virt. eigenvalues --    1.91659   1.92531   1.98909   1.99817   2.02102
  Beta virt. eigenvalues --    2.02822   2.03635   2.07169   2.09248   2.16608
  Beta virt. eigenvalues --    2.21139   2.28423   2.29232   2.35640   2.39556
  Beta virt. eigenvalues --    2.49270   2.50463   2.52861   2.54599   2.56151
  Beta virt. eigenvalues --    2.57818   2.60350   2.60568   2.61357   2.62870
  Beta virt. eigenvalues --    2.64031   2.65885   2.68223   2.69568   2.71145
  Beta virt. eigenvalues --    2.71543   2.73142   2.74302   2.74715   2.75211
  Beta virt. eigenvalues --    2.75813   2.76842   2.77445   2.78198   2.78539
  Beta virt. eigenvalues --    2.79583   2.80038   2.81301   2.81526   2.81730
  Beta virt. eigenvalues --    2.82179   2.82549   2.84096   2.84136   2.85260
  Beta virt. eigenvalues --    2.85727   2.86591   2.87706   2.88117   2.88451
  Beta virt. eigenvalues --    2.89354   2.90259   2.90640   2.91082   2.92793
  Beta virt. eigenvalues --    2.93345   2.94460   2.96169   2.98135   2.98975
  Beta virt. eigenvalues --    2.99827   3.02065   3.02315   3.03404   3.07146
  Beta virt. eigenvalues --    3.08689   3.09868   3.10443   3.11484   3.12816
  Beta virt. eigenvalues --    3.13782   3.15221   3.15833   3.16563   3.17184
  Beta virt. eigenvalues --    3.17751   3.18071   3.19131   3.19702   3.20616
  Beta virt. eigenvalues --    3.21299   3.22785   3.23620   3.24638   3.26096
  Beta virt. eigenvalues --    3.26618   3.28140   3.28588   3.30103   3.30541
  Beta virt. eigenvalues --    3.31267   3.32357   3.33869   3.34683   3.35552
  Beta virt. eigenvalues --    3.36746   3.37330   3.38835   3.39789   3.41107
  Beta virt. eigenvalues --    3.41417   3.41895   3.43033   3.44541   3.45177
  Beta virt. eigenvalues --    3.45801   3.46130   3.47132   3.48130   3.49328
  Beta virt. eigenvalues --    3.51798   3.52173   3.53376   3.55256   3.56162
  Beta virt. eigenvalues --    3.58509   3.59683   3.59875   3.61571   3.61809
  Beta virt. eigenvalues --    3.63773   3.64154   3.66602   3.68621   3.69180
  Beta virt. eigenvalues --    3.69740   3.69985   3.71203   3.72363   3.73621
  Beta virt. eigenvalues --    3.74744   3.75428   3.76773   3.77601   3.78878
  Beta virt. eigenvalues --    3.80273   3.80413   3.80953   3.81098   3.82880
  Beta virt. eigenvalues --    3.83974   3.84770   3.85795   3.86634   3.89895
  Beta virt. eigenvalues --    3.91354   3.93626   3.94617   3.95315   3.98415
  Beta virt. eigenvalues --    3.99267   3.99841   4.01835   4.03438   4.04585
  Beta virt. eigenvalues --    4.04804   4.06576   4.07783   4.09440   4.10200
  Beta virt. eigenvalues --    4.10857   4.13295   4.13604   4.15473   4.17574
  Beta virt. eigenvalues --    4.19663   4.20414   4.22156   4.23667   4.25336
  Beta virt. eigenvalues --    4.26269   4.28532   4.30012   4.32821   4.34298
  Beta virt. eigenvalues --    4.35119   4.35777   4.37188   4.37726   4.38455
  Beta virt. eigenvalues --    4.39568   4.41066   4.41976   4.43008   4.44060
  Beta virt. eigenvalues --    4.45161   4.45894   4.46504   4.48648   4.49066
  Beta virt. eigenvalues --    4.50321   4.50718   4.52682   4.53768   4.55710
  Beta virt. eigenvalues --    4.57482   4.58949   4.61122   4.62606   4.65696
  Beta virt. eigenvalues --    4.66269   4.66981   4.69570   4.72552   4.73451
  Beta virt. eigenvalues --    4.74121   4.78210   4.82683   4.85086   4.86285
  Beta virt. eigenvalues --    4.87770   4.91788   4.94340   4.96035   4.97368
  Beta virt. eigenvalues --    5.00947   5.03255   5.04681   5.07061   5.08356
  Beta virt. eigenvalues --    5.15525   5.16860   5.17820   5.21875   5.22354
  Beta virt. eigenvalues --    5.23927   5.25981   5.28325   5.32021   5.32673
  Beta virt. eigenvalues --    5.34029   5.37164   5.41843   5.44879   5.49792
  Beta virt. eigenvalues --    5.51039   5.60434   5.62679   5.63678   5.65343
  Beta virt. eigenvalues --    5.67458   5.70895   5.73195   5.74244   5.77332
  Beta virt. eigenvalues --    5.83811   5.85314   5.88845   5.96204   6.11745
  Beta virt. eigenvalues --    6.12371   6.31578   6.46467   6.66161   6.87152
  Beta virt. eigenvalues --    6.90265   6.94627   7.08591   7.20118   7.27585
  Beta virt. eigenvalues --    7.33174   7.42034   7.44005   7.68458   7.76653
  Beta virt. eigenvalues --    8.03061  23.91991  23.98572  24.35993  24.46485
  Beta virt. eigenvalues --   24.46978  24.50775  24.64169  24.67779  24.69589
  Beta virt. eigenvalues --   24.73044  25.03015  25.15298  50.03550  50.14615
          Condensed to atoms (all electrons):
               1          2          3          4          5          6
     1  C    5.533423  -0.097326   0.054510   0.817759  -0.611679   0.431632
     2  C   -0.097326  10.552439   0.729033  -1.698019  -0.339078  -3.635725
     3  C    0.054510   0.729033   6.471966  -1.379062   0.411502  -0.333941
     4  C    0.817759  -1.698019  -1.379062  13.391198  -1.516904  -3.186651
     5  C   -0.611679  -0.339078   0.411502  -1.516904  11.237853  -0.737554
     6  C    0.431632  -3.635725  -0.333941  -3.186651  -0.737554  13.564774
     7  H    0.042079  -0.005093   0.324436   0.025098  -0.001711  -0.009254
     8  H   -0.029555   0.012655   0.020106   0.274168   0.059898  -0.020901
     9  H   -0.007682   0.035979   0.001985  -0.020528   0.012436   0.338191
    10  C   -0.407892   1.102409  -0.025310  -0.155041  -1.885781  -1.841064
    11  C    0.069836  -0.537325  -0.020637  -0.058790  -1.007448   0.685653
    12  C    0.069773  -0.191050  -0.029103  -0.178063  -1.345348   0.856181
    13  H    0.006246   0.020377   0.003615  -0.007079   0.136799   0.038056
    14  C   -0.001298   0.048553   0.039413   0.031422   0.386705   0.024149
    15  H    0.000107   0.008216   0.000953   0.016145  -0.001275  -0.005338
    16  C   -0.004033   0.083067   0.021971   0.091482   0.609852  -0.096296
    17  H    0.001828   0.005937  -0.007831   0.039617   0.035342  -0.024396
    18  C    0.012277  -0.064556  -0.006786  -0.036906  -0.373832   0.144546
    19  H   -0.000011   0.000060   0.000681   0.006280  -0.002435  -0.001556
    20  H    0.000026   0.000192   0.000165  -0.000072  -0.002968   0.002755
    21  O    0.006139  -0.054826  -0.011908   0.054091  -0.071008  -0.039736
    22  O   -0.000978   0.015753  -0.003349   0.005312  -0.012312  -0.015562
    23  H    0.000120  -0.003774   0.000168   0.007175   0.011585  -0.024936
    24  H    0.342176   0.035085   0.026606  -0.014783   0.015381  -0.029467
    25  H    0.034346   0.325608  -0.010939   0.006162   0.025936  -0.004229
               7          8          9         10         11         12
     1  C    0.042079  -0.029555  -0.007682  -0.407892   0.069836   0.069773
     2  C   -0.005093   0.012655   0.035979   1.102409  -0.537325  -0.191050
     3  C    0.324436   0.020106   0.001985  -0.025310  -0.020637  -0.029103
     4  C    0.025098   0.274168  -0.020528  -0.155041  -0.058790  -0.178063
     5  C   -0.001711   0.059898   0.012436  -1.885781  -1.007448  -1.345348
     6  C   -0.009254  -0.020901   0.338191  -1.841064   0.685653   0.856181
     7  H    0.483384  -0.006156   0.000037   0.001657   0.001018   0.000965
     8  H   -0.006156   0.453538  -0.000019   0.081841  -0.003593  -0.012001
     9  H    0.000037  -0.000019   0.445578   0.013366  -0.010637   0.000660
    10  C    0.001657   0.081841   0.013366  12.662223  -0.423329  -0.757771
    11  C    0.001018  -0.003593  -0.010637  -0.423329   8.683412  -1.018491
    12  C    0.000965  -0.012001   0.000660  -0.757771  -1.018491   9.050960
    13  H   -0.000013   0.000982   0.009102  -0.217579  -0.220537   0.024867
    14  C   -0.000411  -0.002097   0.003196  -0.803479   0.263792  -0.800641
    15  H    0.000008  -0.000037   0.000252   0.018024   0.335243   0.030699
    16  C   -0.000389   0.000351   0.003917  -0.626875  -0.698566  -0.269021
    17  H    0.000007  -0.000037   0.000248  -0.007259   0.002121   0.328349
    18  C    0.000309  -0.000345  -0.001042  -0.893035   0.302869   0.555906
    19  H   -0.000000  -0.000037  -0.000000   0.035299  -0.018863  -0.021089
    20  H    0.000000  -0.000013   0.000001   0.030637  -0.019582  -0.017520
    21  O    0.000007  -0.000488  -0.001334   0.094808  -0.026895   0.103278
    22  O   -0.000001  -0.000037  -0.002056   0.105194   0.067603  -0.063991
    23  H   -0.000000   0.000002   0.000488  -0.025663   0.051295  -0.021361
    24  H   -0.006464  -0.000072  -0.000076   0.005874  -0.000143  -0.000206
    25  H   -0.000072   0.000040  -0.006150  -0.000225   0.000802   0.001368
              13         14         15         16         17         18
     1  C    0.006246  -0.001298   0.000107  -0.004033   0.001828   0.012277
     2  C    0.020377   0.048553   0.008216   0.083067   0.005937  -0.064556
     3  C    0.003615   0.039413   0.000953   0.021971  -0.007831  -0.006786
     4  C   -0.007079   0.031422   0.016145   0.091482   0.039617  -0.036906
     5  C    0.136799   0.386705  -0.001275   0.609852   0.035342  -0.373832
     6  C    0.038056   0.024149  -0.005338  -0.096296  -0.024396   0.144546
     7  H   -0.000013  -0.000411   0.000008  -0.000389   0.000007   0.000309
     8  H    0.000982  -0.002097  -0.000037   0.000351  -0.000037  -0.000345
     9  H    0.009102   0.003196   0.000252   0.003917   0.000248  -0.001042
    10  C   -0.217579  -0.803479   0.018024  -0.626875  -0.007259  -0.893035
    11  C   -0.220537   0.263792   0.335243  -0.698566   0.002121   0.302869
    12  C    0.024867  -0.800641   0.030699  -0.269021   0.328349   0.555906
    13  H    0.502559   0.029824   0.008575   0.004810   0.004403  -0.011536
    14  C    0.029824   6.313993  -0.037373   0.318472   0.002295   0.258933
    15  H    0.008575  -0.037373   0.449094  -0.009150  -0.000023   0.001648
    16  C    0.004810   0.318472  -0.009150   6.538317   0.015586  -0.026043
    17  H    0.004403   0.002295  -0.000023   0.015586   0.445929  -0.019615
    18  C   -0.011536   0.258933   0.001648  -0.026043  -0.019615   5.946159
    19  H    0.000003  -0.005441   0.000050  -0.009967  -0.000050   0.385038
    20  H    0.000322  -0.005512   0.000058   0.343539  -0.004925   0.047769
    21  O    0.073958  -0.049215  -0.001470  -0.032303  -0.002578   0.037873
    22  O   -0.101312   0.006558  -0.005788   0.017532   0.000554  -0.009467
    23  H    0.004621   0.005952  -0.000487  -0.001947  -0.000015   0.003243
    24  H   -0.000003  -0.000036   0.000000  -0.000043  -0.000001  -0.000007
    25  H    0.000050  -0.000273  -0.000000  -0.000273   0.000002   0.000074
              19         20         21         22         23         24
     1  C   -0.000011   0.000026   0.006139  -0.000978   0.000120   0.342176
     2  C    0.000060   0.000192  -0.054826   0.015753  -0.003774   0.035085
     3  C    0.000681   0.000165  -0.011908  -0.003349   0.000168   0.026606
     4  C    0.006280  -0.000072   0.054091   0.005312   0.007175  -0.014783
     5  C   -0.002435  -0.002968  -0.071008  -0.012312   0.011585   0.015381
     6  C   -0.001556   0.002755  -0.039736  -0.015562  -0.024936  -0.029467
     7  H   -0.000000   0.000000   0.000007  -0.000001  -0.000000  -0.006464
     8  H   -0.000037  -0.000013  -0.000488  -0.000037   0.000002  -0.000072
     9  H   -0.000000   0.000001  -0.001334  -0.002056   0.000488  -0.000076
    10  C    0.035299   0.030637   0.094808   0.105194  -0.025663   0.005874
    11  C   -0.018863  -0.019582  -0.026895   0.067603   0.051295  -0.000143
    12  C   -0.021089  -0.017520   0.103278  -0.063991  -0.021361  -0.000206
    13  H    0.000003   0.000322   0.073958  -0.101312   0.004621  -0.000003
    14  C   -0.005441  -0.005512  -0.049215   0.006558   0.005952  -0.000036
    15  H    0.000050   0.000058  -0.001470  -0.005788  -0.000487   0.000000
    16  C   -0.009967   0.343539  -0.032303   0.017532  -0.001947  -0.000043
    17  H   -0.000050  -0.004925  -0.002578   0.000554  -0.000015  -0.000001
    18  C    0.385038   0.047769   0.037873  -0.009467   0.003243  -0.000007
    19  H    0.478621  -0.005966  -0.000072   0.000022  -0.000003   0.000000
    20  H   -0.005966   0.470193  -0.000135   0.000005   0.000002  -0.000000
    21  O   -0.000072  -0.000135   8.255746   0.111727  -0.037269  -0.000004
    22  O    0.000022   0.000005   0.111727   7.835366   0.235356  -0.000000
    23  H   -0.000003   0.000002  -0.037269   0.235356   0.546290  -0.000000
    24  H    0.000000  -0.000000  -0.000004  -0.000000  -0.000000   0.482193
    25  H   -0.000000   0.000000   0.000099  -0.000008  -0.000000  -0.006563
              25
     1  C    0.034346
     2  C    0.325608
     3  C   -0.010939
     4  C    0.006162
     5  C    0.025936
     6  C   -0.004229
     7  H   -0.000072
     8  H    0.000040
     9  H   -0.006150
    10  C   -0.000225
    11  C    0.000802
    12  C    0.001368
    13  H    0.000050
    14  C   -0.000273
    15  H   -0.000000
    16  C   -0.000273
    17  H    0.000002
    18  C    0.000074
    19  H   -0.000000
    20  H    0.000000
    21  O    0.000099
    22  O   -0.000008
    23  H   -0.000000
    24  H   -0.006563
    25  H    0.483429
          Atomic-Atomic Spin Densities.
               1          2          3          4          5          6
     1  C    0.024064  -0.015507  -0.004031  -0.013812  -0.035723   0.034331
     2  C   -0.015507   0.038146   0.011453  -0.005938   0.019213  -0.020584
     3  C   -0.004031   0.011453   0.063096   0.005877   0.010179  -0.050484
     4  C   -0.013812  -0.005938   0.005877   0.129778  -0.018386  -0.131133
     5  C   -0.035723   0.019213   0.010179  -0.018386   0.256992  -0.134856
     6  C    0.034331  -0.020584  -0.050484  -0.131133  -0.134856   0.281650
     7  H   -0.000262   0.000038  -0.000005   0.000178  -0.000028  -0.000211
     8  H    0.001032  -0.000251   0.002592   0.000889  -0.004783  -0.000023
     9  H    0.000013  -0.000185  -0.000254   0.000291  -0.001203  -0.000439
    10  C    0.005364  -0.024702  -0.015681   0.051099  -0.065469  -0.038082
    11  C    0.009141  -0.018592  -0.027235  -0.032350  -0.104092   0.074661
    12  C    0.001513   0.005496  -0.011515  -0.010138   0.022935   0.020885
    13  H    0.000493   0.001682  -0.000513  -0.004613  -0.020744   0.013050
    14  C   -0.004546   0.007073   0.016825   0.037544   0.059009  -0.054114
    15  H   -0.000429   0.000641   0.002061   0.006188   0.010764  -0.007473
    16  C   -0.002056   0.003965   0.005871  -0.001919   0.017854  -0.012523
    17  H    0.000182  -0.000222  -0.000657   0.000380  -0.003355   0.001465
    18  C    0.001859  -0.002924  -0.002669  -0.008126  -0.033460   0.020231
    19  H   -0.000010   0.000016   0.000095   0.000356   0.001146  -0.000281
    20  H   -0.000014   0.000027   0.000190   0.000931   0.000847  -0.000566
    21  O    0.000729  -0.001090  -0.000976   0.001669   0.015911   0.005401
    22  O   -0.000320   0.000583   0.000428  -0.000080  -0.000830  -0.003035
    23  H    0.000011  -0.000145  -0.000021  -0.000100  -0.000538   0.000240
    24  H   -0.000398   0.000189   0.000371   0.000075   0.000177  -0.000345
    25  H    0.000941  -0.001085  -0.000486   0.000300  -0.000998   0.001253
               7          8          9         10         11         12
     1  C   -0.000262   0.001032   0.000013   0.005364   0.009141   0.001513
     2  C    0.000038  -0.000251  -0.000185  -0.024702  -0.018592   0.005496
     3  C   -0.000005   0.002592  -0.000254  -0.015681  -0.027235  -0.011515
     4  C    0.000178   0.000889   0.000291   0.051099  -0.032350  -0.010138
     5  C   -0.000028  -0.004783  -0.001203  -0.065469  -0.104092   0.022935
     6  C   -0.000211  -0.000023  -0.000439  -0.038082   0.074661   0.020885
     7  H    0.000124  -0.000025   0.000000   0.000230   0.000068   0.000006
     8  H   -0.000025   0.000668  -0.000001  -0.000145   0.000822   0.000835
     9  H    0.000000  -0.000001  -0.000029   0.001651   0.000488   0.000001
    10  C    0.000230  -0.000145   0.001651   0.240774   0.045306  -0.046434
    11  C    0.000068   0.000822   0.000488   0.045306   0.103435  -0.028205
    12  C    0.000006   0.000835   0.000001  -0.046434  -0.028205  -0.056969
    13  H   -0.000000  -0.000055  -0.000071   0.009090   0.012553  -0.000135
    14  C   -0.000023  -0.000834  -0.000064  -0.072141  -0.094737   0.018088
    15  H   -0.000001  -0.000046  -0.000014  -0.006246  -0.010473   0.001136
    16  C   -0.000020  -0.000260  -0.000117  -0.039339  -0.000206   0.032909
    17  H   -0.000000   0.000024   0.000001  -0.004696   0.002181   0.010767
    18  C    0.000012   0.000117   0.000022   0.039076   0.036118  -0.014620
    19  H   -0.000000   0.000000  -0.000000  -0.001172  -0.008449  -0.005466
    20  H   -0.000000  -0.000009  -0.000000   0.002842  -0.003763  -0.005609
    21  O   -0.000000   0.000017  -0.000046  -0.033343  -0.007089   0.006180
    22  O    0.000000  -0.000001   0.000024   0.004919  -0.000428  -0.001557
    23  H   -0.000000  -0.000000  -0.000003  -0.000397   0.001958  -0.000068
    24  H    0.000004  -0.000000   0.000000  -0.000048  -0.000016  -0.000001
    25  H   -0.000000   0.000000  -0.000002   0.000015   0.000043   0.000018
              13         14         15         16         17         18
     1  C    0.000493  -0.004546  -0.000429  -0.002056   0.000182   0.001859
     2  C    0.001682   0.007073   0.000641   0.003965  -0.000222  -0.002924
     3  C   -0.000513   0.016825   0.002061   0.005871  -0.000657  -0.002669
     4  C   -0.004613   0.037544   0.006188  -0.001919   0.000380  -0.008126
     5  C   -0.020744   0.059009   0.010764   0.017854  -0.003355  -0.033460
     6  C    0.013050  -0.054114  -0.007473  -0.012523   0.001465   0.020231
     7  H   -0.000000  -0.000023  -0.000001  -0.000020  -0.000000   0.000012
     8  H   -0.000055  -0.000834  -0.000046  -0.000260   0.000024   0.000117
     9  H   -0.000071  -0.000064  -0.000014  -0.000117   0.000001   0.000022
    10  C    0.009090  -0.072141  -0.006246  -0.039339  -0.004696   0.039076
    11  C    0.012553  -0.094737  -0.010473  -0.000206   0.002181   0.036118
    12  C   -0.000135   0.018088   0.001136   0.032909   0.010767  -0.014620
    13  H   -0.003526  -0.008311  -0.001107  -0.004303  -0.000356   0.005100
    14  C   -0.008311   1.072581   0.003021  -0.029908  -0.001692  -0.024436
    15  H   -0.001107   0.003021   0.019541   0.001422  -0.000006  -0.007874
    16  C   -0.004303  -0.029908   0.001422   0.084205  -0.004345  -0.002535
    17  H   -0.000356  -0.001692  -0.000006  -0.004345   0.006790  -0.000201
    18  C    0.005100  -0.024436  -0.007874  -0.002535  -0.000201   0.020831
    19  H   -0.000034   0.005784   0.000116  -0.004976  -0.000013   0.003856
    20  H   -0.000012   0.003965   0.000014   0.002878  -0.000513  -0.001778
    21  O   -0.000824   0.003315   0.000799   0.003856   0.000362  -0.004318
    22  O    0.000253   0.001166   0.000026  -0.000128  -0.000049  -0.000092
    23  H   -0.000253  -0.000577  -0.000044  -0.000083  -0.000000   0.000221
    24  H    0.000000   0.000004   0.000000   0.000004  -0.000000  -0.000001
    25  H   -0.000001  -0.000018  -0.000001  -0.000008   0.000001   0.000004
              19         20         21         22         23         24
     1  C   -0.000010  -0.000014   0.000729  -0.000320   0.000011  -0.000398
     2  C    0.000016   0.000027  -0.001090   0.000583  -0.000145   0.000189
     3  C    0.000095   0.000190  -0.000976   0.000428  -0.000021   0.000371
     4  C    0.000356   0.000931   0.001669  -0.000080  -0.000100   0.000075
     5  C    0.001146   0.000847   0.015911  -0.000830  -0.000538   0.000177
     6  C   -0.000281  -0.000566   0.005401  -0.003035   0.000240  -0.000345
     7  H   -0.000000  -0.000000  -0.000000   0.000000  -0.000000   0.000004
     8  H    0.000000  -0.000009   0.000017  -0.000001  -0.000000  -0.000000
     9  H   -0.000000  -0.000000  -0.000046   0.000024  -0.000003   0.000000
    10  C   -0.001172   0.002842  -0.033343   0.004919  -0.000397  -0.000048
    11  C   -0.008449  -0.003763  -0.007089  -0.000428   0.001958  -0.000016
    12  C   -0.005466  -0.005609   0.006180  -0.001557  -0.000068  -0.000001
    13  H   -0.000034  -0.000012  -0.000824   0.000253  -0.000253   0.000000
    14  C    0.005784   0.003965   0.003315   0.001166  -0.000577   0.000004
    15  H    0.000116   0.000014   0.000799   0.000026  -0.000044   0.000000
    16  C   -0.004976   0.002878   0.003856  -0.000128  -0.000083   0.000004
    17  H   -0.000013  -0.000513   0.000362  -0.000049  -0.000000  -0.000000
    18  C    0.003856  -0.001778  -0.004318  -0.000092   0.000221  -0.000001
    19  H    0.017968   0.000905   0.000042   0.000003  -0.000001   0.000000
    20  H    0.000905   0.003113  -0.000023   0.000005  -0.000000   0.000000
    21  O    0.000042  -0.000023   0.022110  -0.001644   0.000143  -0.000000
    22  O    0.000003   0.000005  -0.001644   0.002253  -0.000618   0.000000
    23  H   -0.000001  -0.000000   0.000143  -0.000618   0.000519   0.000000
    24  H    0.000000   0.000000  -0.000000   0.000000   0.000000  -0.000094
    25  H   -0.000000  -0.000000   0.000005  -0.000002  -0.000000  -0.000002
              25
     1  C    0.000941
     2  C   -0.001085
     3  C   -0.000486
     4  C    0.000300
     5  C   -0.000998
     6  C    0.001253
     7  H   -0.000000
     8  H    0.000000
     9  H   -0.000002
    10  C    0.000015
    11  C    0.000043
    12  C    0.000018
    13  H   -0.000001
    14  C   -0.000018
    15  H   -0.000001
    16  C   -0.000008
    17  H    0.000001
    18  C    0.000004
    19  H   -0.000000
    20  H   -0.000000
    21  O    0.000005
    22  O   -0.000002
    23  H   -0.000000
    24  H   -0.000002
    25  H    0.000150
 Mulliken charges and spin densities:
               1          2
     1  C   -0.261824   0.002566
     2  C   -0.348592  -0.002705
     3  C   -0.278244   0.004510
     4  C   -0.514012   0.008959
     5  C    0.966044  -0.009438
     6  C   -0.079331  -0.000982
     7  H    0.150557   0.000085
     8  H    0.171805   0.000563
     9  H    0.184087   0.000062
    10  C   -0.081030   0.052469
    11  C   -0.398810  -0.048859
    12  C   -0.297351  -0.059949
    13  H    0.688889  -0.002638
    14  C   -0.027484   0.936975
    15  H    0.191869   0.012016
    16  C   -0.273992   0.050237
    17  H    0.184510   0.006047
    18  C   -0.253472   0.024414
    19  H    0.159435   0.009885
    20  H    0.161028   0.003431
    21  O   -0.408484   0.011186
    22  O   -0.186122   0.000876
    23  H    0.249159   0.000243
    24  H    0.150552  -0.000080
    25  H    0.150813   0.000127
 Sum of Mulliken charges =  -0.00000   1.00000
 Mulliken charges and spin densities with hydrogens summed into heavy atoms:
               1          2
     1  C   -0.111272   0.002486
     2  C   -0.197778  -0.002578
     3  C   -0.127686   0.004595
     4  C   -0.342207   0.009522
     5  C    0.966044  -0.009438
     6  C    0.104755  -0.000920
    10  C   -0.081030   0.052469
    11  C   -0.206941  -0.036844
    12  C   -0.112841  -0.053902
    14  C   -0.027484   0.936975
    16  C   -0.112964   0.053668
    18  C   -0.094037   0.034300
    21  O    0.280405   0.008548
    22  O    0.063037   0.001119
 Electronic spatial extent (au):  <R**2>=           2825.7621
 Charge=             -0.0000 electrons
 Dipole moment (field-independent basis, Debye):
    X=              0.5142    Y=             -2.5728    Z=             -0.2910  Tot=              2.6398
 Quadrupole moment (field-independent basis, Debye-Ang):
   XX=            -70.6969   YY=            -84.7057   ZZ=            -82.6855
   XY=             -1.9554   XZ=             -0.7149   YZ=             -3.4303
 Traceless Quadrupole moment (field-independent basis, Debye-Ang):
   XX=              8.6658   YY=             -5.3430   ZZ=             -3.3228
   XY=             -1.9554   XZ=             -0.7149   YZ=             -3.4303
 Octapole moment (field-independent basis, Debye-Ang**2):
  XXX=             -3.0996  YYY=              2.9412  ZZZ=              6.7797  XYY=              5.2024
  XXY=              0.5661  XXZ=              0.9601  XZZ=             13.4626  YZZ=              6.8338
  YYZ=             -6.5969  XYZ=            -18.3397
 Hexadecapole moment (field-independent basis, Debye-Ang**3):
 XXXX=          -2222.3568 YYYY=          -1091.3435 ZZZZ=           -355.6823 XXXY=             -6.5759
 XXXZ=              9.0381 YYYX=             51.3877 YYYZ=            -19.3572 ZZZX=             17.3613
 ZZZY=            -26.2453 XXYY=           -490.5236 XXZZ=           -496.1837 YYZZ=           -238.2817
 XXYZ=            -15.1425 YYXZ=            -10.1396 ZZXY=              2.0852
 N-N= 8.239293784430D+02 E-N=-3.078587443901D+03  KE= 6.115835432559D+02
                          Isotropic Fermi Contact Couplings
        Atom                 a.u.       MegaHertz       Gauss      10(-4) cm-1
     1  C(13)              0.00011       0.12510       0.04464       0.04173
     2  C(13)              0.00018       0.20244       0.07224       0.06753
     3  C(13)              0.00006       0.06567       0.02343       0.02191
     4  C(13)              0.00103       1.15989       0.41388       0.38690
     5  C(13)              0.00080       0.90334       0.32233       0.30132
     6  C(13)              0.00161       1.80840       0.64528       0.60322
     7  H(1)               0.00003       0.13618       0.04859       0.04542
     8  H(1)              -0.00003      -0.12207      -0.04356      -0.04072
     9  H(1)              -0.00000      -0.00338      -0.00120      -0.00113
    10  C(13)              0.04322      48.59290      17.33915      16.20885
    11  C(13)              0.02054      23.08850       8.23855       7.70149
    12  C(13)             -0.00902     -10.14027      -3.61830      -3.38243
    13  H(1)              -0.00143      -6.40978      -2.28717      -2.13807
    14  C(13)              0.52884     594.51865     212.13904     198.31008
    15  H(1)               0.01017      45.44717      16.21668      15.15954
    16  C(13)              0.04087      45.94933      16.39586      15.32705
    17  H(1)               0.00144       6.45800       2.30438       2.15416
    18  C(13)              0.02114      23.76567       8.48018       7.92737
    19  H(1)               0.00985      44.04090      15.71489      14.69046
    20  H(1)               0.00212       9.45618       3.37420       3.15424
    21  O(17)              0.00794      -4.81221      -1.71712      -1.60518
    22  O(17)             -0.00033       0.20143       0.07188       0.06719
    23  H(1)              -0.00001      -0.03133      -0.01118      -0.01045
    24  H(1)              -0.00001      -0.05843      -0.02085      -0.01949
    25  H(1)               0.00005       0.23414       0.08355       0.07810
 --------------------------------------------------------
       Center         ----  Spin Dipole Couplings  ----
                      3XX-RR        3YY-RR        3ZZ-RR
 --------------------------------------------------------
     1   Atom        0.000587     -0.000996      0.000410
     2   Atom        0.001999     -0.000419     -0.001580
     3   Atom        0.002051     -0.000565     -0.001486
     4   Atom        0.002589     -0.001405     -0.001184
     5   Atom        0.009779     -0.003913     -0.005866
     6   Atom        0.001850     -0.000632     -0.001219
     7   Atom        0.001059     -0.000445     -0.000614
     8   Atom        0.003305     -0.001173     -0.002132
     9   Atom        0.000851      0.000050     -0.000902
    10   Atom       -0.024290      0.001973      0.022318
    11   Atom        0.059627     -0.061706      0.002079
    12   Atom        0.001510     -0.028888      0.027377
    13   Atom       -0.007795      0.015985     -0.008190
    14   Atom       -0.226989     -0.405775      0.632763
    15   Atom        0.012601     -0.003031     -0.009570
    16   Atom       -0.011823     -0.019222      0.031046
    17   Atom        0.000191     -0.001064      0.000873
    18   Atom       -0.031564     -0.072043      0.103607
    19   Atom        0.002407     -0.004327      0.001919
    20   Atom       -0.003928     -0.003356      0.007283
    21   Atom       -0.022223      0.022008      0.000214
    22   Atom       -0.004261      0.013319     -0.009058
    23   Atom       -0.001648      0.003458     -0.001810
    24   Atom        0.000747     -0.000417     -0.000330
    25   Atom        0.000673     -0.000305     -0.000368
 --------------------------------------------------------
                        XY            XZ            YZ
 --------------------------------------------------------
     1   Atom       -0.000007     -0.000380     -0.000290
     2   Atom       -0.000300     -0.000530      0.000468
     3   Atom        0.000450     -0.000463      0.000246
     4   Atom        0.001697     -0.000869     -0.000060
     5   Atom        0.000197     -0.001587      0.000918
     6   Atom       -0.002660      0.000261     -0.000724
     7   Atom        0.000478     -0.000268     -0.000064
     8   Atom        0.002296     -0.001791     -0.000478
     9   Atom       -0.001306     -0.000893      0.000638
    10   Atom       -0.005408     -0.040130      0.027585
    11   Atom       -0.092265     -0.038985      0.001887
    12   Atom       -0.036211     -0.015497     -0.014505
    13   Atom        0.000993     -0.002791      0.008853
    14   Atom        0.003487     -0.545534      0.184736
    15   Atom       -0.016268      0.006801     -0.003226
    16   Atom        0.016743     -0.032795      0.003331
    17   Atom       -0.001944     -0.000008     -0.000662
    18   Atom       -0.051580      0.023838     -0.039479
    19   Atom       -0.011400      0.013469     -0.011382
    20   Atom       -0.001255      0.002866     -0.004664
    21   Atom        0.022759      0.017883      0.041174
    22   Atom        0.002964     -0.001196      0.005424
    23   Atom       -0.000769     -0.000571      0.000736
    24   Atom       -0.000004     -0.000162     -0.000007
    25   Atom       -0.000341     -0.000285      0.000121
 --------------------------------------------------------


 ---------------------------------------------------------------------------------
              Anisotropic Spin Dipole Couplings in Principal Axis System
 ---------------------------------------------------------------------------------

       Atom             a.u.   MegaHertz   Gauss  10(-4) cm-1        Axes

              Baa    -0.0011    -0.142    -0.051    -0.047  0.0517  0.9771  0.2062
     1 C(13)  Bbb     0.0002     0.021     0.007     0.007  0.6452 -0.1903  0.7400
              Bcc     0.0009     0.121     0.043     0.040  0.7623  0.0948 -0.6402
 
              Baa    -0.0018    -0.240    -0.086    -0.080  0.1089 -0.2996  0.9478
     2 C(13)  Bbb    -0.0003    -0.046    -0.016    -0.015  0.1836  0.9432  0.2771
              Bcc     0.0021     0.286     0.102     0.095  0.9770 -0.1438 -0.1577
 
[...]
   A23        1.42347  -0.00010  -0.00979  -0.04878   0.00021   1.42368
   A24        1.46393  -0.00035  -0.00938  -0.04020  -0.00042   1.46351
   A25        2.05201  -0.00202   0.00498  -0.01112   0.00022   2.05222
   A26        2.09471   0.00109  -0.00134   0.00996  -0.00007   2.09464
   A27        2.13625   0.00092  -0.00363   0.00105  -0.00014   2.13611
   A28        2.10641   0.00222  -0.00389   0.01519  -0.00028   2.10613
   A29        2.07896  -0.00093   0.00065  -0.00446   0.00001   2.07897
   A30        2.09782  -0.00129   0.00326  -0.01074   0.00027   2.09809
   A31        3.14159  -0.00056   0.00000   0.00451   0.00000   3.14159
   A32        2.19211   0.00037  -0.00327   0.00382  -0.00017   2.19194
   A33        2.10235  -0.00032   0.00161  -0.00687   0.00013   2.10248
   A34        2.09108  -0.00001   0.00107   0.00095   0.00000   2.09108
   A35        2.08974   0.00033  -0.00268   0.00588  -0.00013   2.08962
   A36        2.03479  -0.00020   0.00129   0.00060   0.00007   2.03486
   A37        2.13426   0.00043  -0.00208   0.00248  -0.00008   2.13418
   A38        2.11412  -0.00023   0.00082  -0.00308   0.00002   2.11414
   A39        1.75397   0.00356  -0.00194   0.03634   0.00046   1.75443
   A40        1.77768  -0.00010   0.00742  -0.00202   0.00061   1.77829
    D1       -0.00207   0.00001  -0.00106  -0.00130  -0.00061  -0.00269
    D2        3.13701  -0.00014  -0.00050  -0.00703  -0.00013   3.13688
    D3        3.13995   0.00008  -0.00028   0.00291  -0.00054   3.13941
    D4       -0.00415  -0.00007   0.00029  -0.00282  -0.00007  -0.00421
    D5       -0.00042   0.00001  -0.00012   0.00327  -0.00066  -0.00108
    D6       -3.14130   0.00000   0.00091   0.00268   0.00002  -3.14128
    D7        3.14074  -0.00005  -0.00090  -0.00094  -0.00073   3.14001
    D8       -0.00013  -0.00006   0.00013  -0.00153  -0.00005  -0.00018
    D9        0.00235  -0.00003   0.00178  -0.00324   0.00144   0.00379
   D10        3.13475  -0.00010   0.00024  -0.00480  -0.00068   3.13406
   D11       -3.13676   0.00012   0.00122   0.00244   0.00096  -3.13580
   D12       -0.00437   0.00005  -0.00033   0.00088  -0.00116  -0.00553
   D13        0.00264  -0.00002   0.00058  -0.00071   0.00111   0.00376
   D14        3.13702  -0.00004  -0.00222  -0.00010  -0.00092   3.13610
   D15       -3.13966  -0.00000  -0.00044  -0.00014   0.00044  -3.13922
   D16       -0.00529  -0.00003  -0.00325   0.00048  -0.00159  -0.00688
   D17       -0.00236  -0.00000   0.00012  -0.00377  -0.00029  -0.00265
   D18        3.13746   0.00009  -0.00244   0.00671  -0.00090   3.13656
   D19       -3.13679   0.00002   0.00290  -0.00439   0.00172  -3.13507
   D20        0.00303   0.00011   0.00035   0.00609   0.00111   0.00414
   D21       -0.00014   0.00003  -0.00129   0.00574  -0.00098  -0.00112
   D22       -3.13245   0.00009   0.00025   0.00720   0.00116  -3.13129
   D23       -3.13992  -0.00007   0.00142  -0.00507  -0.00036  -3.14027
   D24        0.01096  -0.00001   0.00296  -0.00360   0.00178   0.01275
   D25        1.22379  -0.00169  -0.04439  -0.24326  -0.00064   1.22314
   D26       -1.97115  -0.00066  -0.05198  -0.27742  -0.00087  -1.97202
   D27        2.74234  -0.00095  -0.04817  -0.26517  -0.00039   2.74195
   D28       -1.91963  -0.00160  -0.04707  -0.23247  -0.00127  -1.92090
   D29        1.16862  -0.00057  -0.05466  -0.26663  -0.00149   1.16713
   D30       -0.40108  -0.00085  -0.05085  -0.25438  -0.00102  -0.40209
   D31        3.09544   0.00076  -0.00960  -0.04947  -0.00026   3.09518
   D32       -0.02460   0.00100  -0.01031  -0.04359  -0.00024  -0.02483
   D33        0.00621  -0.00023  -0.00212  -0.01584  -0.00004   0.00617
   D34       -3.11383   0.00000  -0.00283  -0.00997  -0.00002  -3.11385
   D35        1.36951  -0.00069  -0.01875  -0.09195  -0.00041   1.36910
   D36       -1.75052  -0.00045  -0.01946  -0.08608  -0.00040  -1.75092
   D37       -3.09728  -0.00075   0.01001   0.05335  -0.00042  -3.09770
   D38        0.04124  -0.00090   0.01370   0.04978   0.00205   0.04330
   D39       -0.00862   0.00029   0.00255   0.01965  -0.00065  -0.00926
   D40        3.12991   0.00014   0.00623   0.01607   0.00183   3.13174
   D41       -1.34870   0.00061   0.01935   0.10032  -0.00064  -1.34934
   D42        1.78983   0.00046   0.02304   0.09674   0.00184   1.79166
   D43       -0.04787  -0.00022   0.94381  -0.00863   0.07232   0.02445
   D44        2.02772   0.00033   0.94428  -0.01494   0.07227   2.09999
   D45       -2.14903   0.00039   0.94751   0.00335   0.07236  -2.07667
   D46       -0.00260   0.00003  -0.00076  -0.00480   0.00067  -0.00193
   D47        3.11688  -0.00021  -0.00000  -0.01071   0.00066   3.11754
   D48        0.00721  -0.00018  -0.00006  -0.00331   0.00076   0.00797
   D49       -3.14030  -0.00016  -0.00065  -0.01067   0.00081  -3.13948
   D50       -3.13128  -0.00003  -0.00377   0.00029  -0.00174  -3.13302
   D51        0.00440  -0.00000  -0.00435  -0.00707  -0.00169   0.00271
   D52       -1.57976   0.00051  -0.95150   0.01548  -0.07240  -1.65216
   D53        0.00111   0.00008   0.00315   0.02076  -0.00057   0.00055
   D54        3.13660   0.00026   0.00697   0.02149   0.00028   3.13688
   D55       -0.00332  -0.00000  -0.00266  -0.01610  -0.00017  -0.00349
   D56       -3.13888  -0.00018  -0.00640  -0.01685  -0.00101  -3.13989
   D57       -3.13900  -0.00003  -0.00208  -0.00873  -0.00023  -3.13923
   D58        0.00862  -0.00021  -0.00582  -0.00948  -0.00107   0.00756
   D59       -1.69781  -0.00011   0.02926   0.02473   0.00264  -1.69517
         Item               Value     Threshold  Converged?
 Maximum Force            0.006462     0.002500     NO 
 RMS     Force            0.001386     0.001667     YES
 Maximum Displacement     0.002228     0.010000     YES
 RMS     Displacement     0.000459     0.006667     YES
 Predicted change in Energy=-3.657255D-06
 GradGradGradGradGradGradGradGradGradGradGradGradGradGradGradGradGradGrad

                          Input orientation:                          
 ---------------------------------------------------------------------
 Center     Atomic      Atomic             Coordinates (Angstroms)
 Number     Number       Type             X           Y           Z
 ---------------------------------------------------------------------
      1          6           0       -9.403914    0.958159   -0.060733
      2          6           0       -8.614756    0.062447    0.651465
      3          6           0       -8.809685    2.029625   -0.726478
      4          6           0       -7.433835    2.196968   -0.673558
      5          6           0       -6.631812    1.295277    0.040391
      6          6           0       -7.235221    0.226336    0.701691
      7          1           0       -9.415867    2.733550   -1.284129
      8          1           0       -6.966682    3.025748   -1.193882
      9          1           0       -6.634965   -0.477960    1.267978
     10          6           0       -5.158583    1.499089    0.072267
     11          6           0       -4.616946    2.578296    0.788710
     12          6           0       -4.294830    0.594419   -0.549223
     13          1           0       -4.603184    0.440481    1.866323
     14          6           0       -3.254160    2.689287    0.832634
     15          1           0       -5.271292    3.272868    1.297020
     16          6           0       -2.911743    0.762607   -0.471577
     17          1           0       -4.711497   -0.241881   -1.093241
     18          6           0       -2.367245    1.836043    0.238847
     19          1           0       -1.296350    1.977708    0.304781
     20          1           0       -2.255294    0.054175   -0.960145
     21          8           0       -4.346937   -0.047934    2.694057
     22          8           0       -4.381579    1.013926    3.644077
     23          1           0       -3.455864    1.269292    3.689518
     24          1           0      -10.476602    0.824491   -0.097983
     25          1           0       -9.067648   -0.770881    1.175741
 ---------------------------------------------------------------------
                    Distance matrix (angstroms):
                    1          2          3          4          5
     1  C    0.000000
     2  C    1.390071   0.000000
     3  C    1.394404   2.409671   0.000000
     4  C    2.406535   2.776047   1.386999   0.000000
     5  C    2.794355   2.413575   2.422908   1.402145   0.000000
     6  C    2.412485   1.390143   2.787554   2.411254   1.394294
     7  H    2.156120   3.394568   1.083486   2.142234   3.402050
     8  H    3.391025   3.860389   2.146482   1.084364   2.151766
     9  H    3.390426   2.142825   3.872369   3.400440   2.156699
    10  C    4.281720   3.787419   3.774918   2.494005   1.487602
    11  C    5.124594   4.725549   4.491759   3.196640   2.503159
    12  C    5.145257   4.515131   4.740797   3.526610   2.510047
    13  H    5.198898   4.208503   5.190630   4.189132   2.860077
    14  C    6.450921   5.972361   5.807739   4.469975   3.738910
    15  H    4.927467   4.679988   4.261504   3.117264   2.709428
    16  C    6.508096   5.854554   6.037882   4.748421   3.792725
    17  H    4.952267   4.286262   4.699936   3.679027   2.708429
    18  C    7.097544   6.507479   6.517235   5.160725   4.303295
    19  H    8.179589   7.572812   7.583956   6.218838   5.385423
    20  H    7.261466   6.560496   6.849601   5.611682   4.657823
    21  O    5.845863   4.732721   5.994366   5.090123   3.750576
    22  O    6.241200   5.270752   6.304087   5.418287   4.257847
    23  H    7.038500   6.107405   6.981584   5.976727   4.837711
    24  H    1.081626   2.146824   2.150806   3.387242   3.875976
    25  H    2.152098   1.083704   3.395264   3.859712   3.389886
                    6          7          8          9         10
     6  C    0.000000
     7  H    3.871023   0.000000
     8  H    3.391463   2.468204   0.000000
     9  H    1.084906   4.955851   4.294969   0.000000
    10  C    2.515651   4.635533   2.683849   2.741924   0.000000
    11  C    3.520604   5.229762   3.106791   3.693615   1.404048
    12  C    3.216547   5.598303   3.669570   3.150944   1.396691
    13  H    2.886147   6.192369   4.651299   2.308611   2.155866
    14  C    4.683174   6.515311   4.242970   4.653044   2.370982
    15  H    3.673253   4.912300   3.023245   3.991135   2.158476
    16  C    4.511830   6.844595   4.699581   4.292719   2.426203
    17  H    3.132123   5.569625   3.971573   3.054638   2.142258
    18  C    5.148064   7.266914   4.962150   4.962575   2.816532
    19  H    6.204437   8.307978   5.957940   5.954735   3.898716
    20  H    5.252714   7.652308   5.575128   4.942592   3.403342
    21  O    3.519507   7.018310   5.605948   2.730146   3.150529
    22  O    4.173871   7.251784   5.842605   3.598516   3.687404
    23  H    4.929341   7.899547   6.265666   4.361585   4.004568
    24  H    3.391728   2.485279   4.285565   4.280233   5.363338
    25  H    2.139382   4.295725   4.944044   2.451991   4.653086
                   11         12         13         14         15
    11  C    0.000000
    12  C    2.414454   0.000000
    13  H    2.394094   2.440009   0.000000
    14  C    1.368003   2.716798   2.818777   0.000000
    15  H    1.081193   3.396495   2.965281   2.150591   0.000000
    16  C    2.791553   1.395437   2.903535   2.351662   3.872573
    17  H    3.391766   1.081187   3.039140   3.797970   4.287211
    18  C    2.431962   2.424513   3.097692   1.366466   3.408473
    19  H    3.408996   3.410820   3.966943   2.148953   4.296760
    20  H    3.873897   2.149517   3.694691   3.340001   4.954899
    21  O    3.255815   3.306690   0.994663   3.485891   3.719392
    22  O    3.264318   4.215124   1.881052   3.461520   3.376846
    23  H    3.387666   4.373356   2.308096   3.196694   3.610283
    24  H    6.180423   6.202488   6.205078   7.517125   5.919108
    25  H    5.583505   5.255411   4.677151   6.774004   5.547877
                   16         17         18         19         20
    16  C    0.000000
    17  H    2.152807   0.000000
    18  C    1.397657   3.404077   0.000000
    19  H    2.165340   4.306306   1.082236   0.000000
    20  H    1.082358   2.477558   2.150620   2.493911   0.000000
    21  O    3.569033   3.809743   3.673773   4.372408   4.211720
    22  O    4.377464   4.912034   4.040917   4.647410   5.161499
    23  H    4.226998   5.170594   3.662435   4.076984   4.953508
    24  H    7.574331   5.946774   8.179141   9.261164   8.302205
    25  H    6.554420   4.940058   7.250464   8.288932   7.186856
                   21         22         23         24         25
    21  O    0.000000
    22  O    1.425231   0.000000
    23  H    1.876176   0.961366   0.000000
    24  H    6.791863   7.154593   7.989604   0.000000
    25  H    5.011292   5.589048   6.478696   2.480470   0.000000
 Stoichiometry    C12H11O2(2)
 Framework group  C1[X(C12H11O2)]
 Deg. of freedom    69
 Full point group                 C1      NOp   1
 Largest Abelian subgroup         C1      NOp   1
 Largest concise Abelian subgroup C1      NOp   1
                         Standard orientation:                         
 ---------------------------------------------------------------------
 Center     Atomic      Atomic             Coordinates (Angstroms)
 Number     Number       Type             X           Y           Z
 ---------------------------------------------------------------------
      1          6           0       -3.824226    0.246415    0.019165
      2          6           0       -2.923798    1.100173    0.645761
      3          6           0       -3.362744   -0.910665   -0.607383
      4          6           0       -2.006962   -1.203245   -0.603285
      5          6           0       -1.093831   -0.347934    0.029680
      6          6           0       -1.565177    0.805942    0.654548
      7          1           0       -4.056286   -1.582537   -1.098839
      8          1           0       -1.643939   -2.104473   -1.084792
      9          1           0       -0.875412    1.486776    1.142101
     10          6           0        0.353044   -0.693549    0.021731
     11          6           0        1.083471   -0.619472   -1.175072
     12          6           0        1.017099   -1.031783    1.202991
     13          1           0        1.270775    1.232666    0.330316
     14          6           0        2.422483   -0.893730   -1.117964
     15          1           0        0.589409   -0.333920   -2.093408
     16          6           0        2.385669   -1.304235    1.197300
     17          1           0        0.456634   -1.079892    2.126316
     18          6           0        3.117281   -1.233618    0.008518
     19          1           0        4.178685   -1.444241   -0.008598
     20          1           0        2.885854   -1.566876    2.120519
     21          8           0        1.694193    2.121374    0.472689
     22          8           0        1.917779    2.522281   -0.876595
     23          1           0        2.837303    2.273999   -1.007190
     24          1           0       -4.880454    0.479425    0.017255
     25          1           0       -3.272201    2.004029    1.131634
 ---------------------------------------------------------------------
 Rotational constants (GHZ):           1.1392019           0.4570804           0.3863253
 Standard basis: 6-311+G(2df,2p) (5D, 7F)
 There are   645 symmetry adapted cartesian basis functions of A   symmetry.
 There are   575 symmetry adapted basis functions of A   symmetry.
   575 basis functions,   849 primitive gaussians,   645 cartesian basis functions
    50 alpha electrons       49 beta electrons
       nuclear repulsion energy       811.9226842859 Hartrees.
 NAtoms=   25 NActive=   25 NUniq=   25 SFac= 1.00D+00 NAtFMM=   60 NAOKFM=F Big=F
 Integral buffers will be    131072 words long.
 Raffenetti 2 integral format.
 Two-electron integral symmetry is turned on.
 One-electron integrals computed using PRISM.
 NBasis=   575 RedAO= T EigKep=  1.74D-06  NBF=   575
 NBsUse=   574 1.00D-06 EigRej=  7.50D-07 NBFU=   574
 Initial guess from the checkpoint file:  "/scratch/dinius.ab/QMscratch/Gau-38142.chk"
 B after Tr=    -0.000000   -0.000000   -0.000000
         Rot=    1.000000    0.000064    0.000009    0.000029 Ang=   0.01 deg.
 Initial guess <Sx>= 0.0000 <Sy>= 0.0000 <Sz>= 0.5000 <S**2>= 0.7617 S= 0.5058
 Requested convergence on RMS density matrix=1.00D-08 within 128 cycles.
 Requested convergence on MAX density matrix=1.00D-06.
 Requested convergence on             energy=1.00D-06.
 No special actions if energy rises.
 SCF Done:  E(UM062X) =  -614.109904179     A.U. after   11 cycles
            NFock= 11  Conv=0.33D-08     -V/T= 2.0040
 <Sx>= 0.0000 <Sy>= 0.0000 <Sz>= 0.5000 <S**2>= 0.7617 S= 0.5058
 <L.S>= 0.000000000000E+00
 Annihilation of the first spin contaminant:
 S**2 before annihilation     0.7617,   after     0.7501
 Calling FoFJK, ICntrl=      2127 FMM=F ISym2X=0 I1Cent= 0 IOpClX= 1 NMat=1 NMatS=1 NMatT=0.
 ***** Axes restored to original set *****
 -------------------------------------------------------------------
 Center     Atomic                   Forces (Hartrees/Bohr)
 Number     Number              X              Y              Z
 -------------------------------------------------------------------
      1        6           0.002337213    0.001234761   -0.000645464
      2        6          -0.000776912    0.000607531   -0.001036082
      3        6          -0.000965952   -0.002695375    0.002036103
      4        6           0.002192015   -0.002163744    0.003503846
      5        6          -0.004864982    0.004887070   -0.005744088
      6        6           0.000783866   -0.000129407   -0.001241035
      7        1           0.000818012   -0.001626479    0.001200582
      8        1          -0.000366547   -0.001271822    0.000808459
      9        1          -0.000117270    0.001731377   -0.001208762
     10        6          -0.001220062   -0.002219244    0.002903677
     11        6          -0.001930520    0.001703126   -0.001822774
     12        6           0.005808204    0.002003771    0.000566633
     13        1           0.007973266   -0.014705368    0.020397027
     14        6          -0.001414914    0.000934989    0.000317600
     15        1          -0.000277369    0.000171924    0.000652237
     16        6          -0.003194692   -0.000554026    0.000065494
     17        1           0.000268570    0.000003017    0.000275029
     18        6           0.001731189   -0.003085828   -0.002494414
     19        1          -0.000526700   -0.000541116    0.000046169
     20        1          -0.000554180    0.000383007    0.000204289
     21        8          -0.006378381    0.016672930   -0.016698681
     22        8          -0.002347224   -0.003781844   -0.001270283
     23        1           0.002514412    0.000527491    0.000098334
     24        1           0.000300959    0.000100449    0.000060451
     25        1           0.000208001    0.001812812   -0.000974347
 -------------------------------------------------------------------
 Cartesian Forces:  Max     0.020397027 RMS     0.004561510

 GradGradGradGradGradGradGradGradGradGradGradGradGradGradGradGradGradGrad
 Berny optimization.
 Using GEDIIS/GDIIS optimizer.
 Bend failed for angle    10 -    13 -    21
 Tors failed for dihedral     5 -    10 -    13 -    21
 Tors failed for dihedral    11 -    10 -    13 -    21
 Tors failed for dihedral    12 -    10 -    13 -    21
 Tors failed for dihedral    10 -    13 -    21 -    22
 FormBX had a problem.
 Error termination via Lnk1e in /shared/centos7/gaussian/g16/l103.exe at Tue Jan 29 10:47:18 2019.
 Job cpu time:       0 days 18 hours 19 minutes 19.3 seconds.
 Elapsed time:       0 days  0 hours 55 minutes 10.7 seconds.
 File lengths (MBytes):  RWF=    592 Int=      0 D2E=      0 Chk=     48 Scr=     32
