 Entering Gaussian System, Link 0=g16
 Input=rxn921.com
 Output=rxn921.log
 Initial command:
 /shared/centos7/gaussian/g16/l1.exe "/scratch/dinius.ab/QMscratch/Gau-35908.inp" -scrdir="/scratch/dinius.ab/QMscratch/"
 Entering Link 1 = /shared/centos7/gaussian/g16/l1.exe PID=     35909.
  
 Copyright (c) 1988,1990,1992,1993,1995,1998,2003,2009,2016,
            Gaussian, Inc.  All Rights Reserved.
  
 This is part of the Gaussian(R) 16 program.  It is based on
 the Gaussian(R) 09 system (copyright 2009, Gaussian, Inc.),
 the Gaussian(R) 03 system (copyright 2003, Gaussian, Inc.),
 the Gaussian(R) 98 system (copyright 1998, Gaussian, Inc.),
 the Gaussian(R) 94 system (copyright 1995, Gaussian, Inc.),
 the Gaussian 92(TM) system (copyright 1992, Gaussian, Inc.),
 the Gaussian 90(TM) system (copyright 1990, Gaussian, Inc.),
 the Gaussian 88(TM) system (copyright 1988, Gaussian, Inc.),
 the Gaussian 86(TM) system (copyright 1986, Carnegie Mellon
 University), and the Gaussian 82(TM) system (copyright 1983,
 Carnegie Mellon University). Gaussian is a federally registered
 trademark of Gaussian, Inc.
  
 This software contains proprietary and confidential information,
 including trade secrets, belonging to Gaussian, Inc.
  
 This software is provided under written license and may be
 used, copied, transmitted, or stored only in accord with that
 written license.
  
 The following legend is applicable only to US Government
 contracts under FAR:
  
                    RESTRICTED RIGHTS LEGEND
  
 Use, reproduction and disclosure by the US Government is
 subject to restrictions as set forth in subparagraphs (a)
 and (c) of the Commercial Computer Software - Restricted
 Rights clause in FAR 52.227-19.
  
 Gaussian, Inc.
 340 Quinnipiac St., Bldg. 40, Wallingford CT 06492
  
  
 ---------------------------------------------------------------
 Warning -- This program may not be used in any manner that
 competes with the business of Gaussian, Inc. or will provide
 assistance to any competitor of Gaussian, Inc.  The licensee
 of this program is prohibited from giving any competitor of
 Gaussian, Inc. access to this program.  By using this program,
 the user acknowledges that Gaussian, Inc. is engaged in the
 business of creating and licensing software in the field of
 computational chemistry and represents and warrants to the
 licensee that it is not a competitor of Gaussian, Inc. and that
 it will not use this program in any manner prohibited above.
 ---------------------------------------------------------------
  

 Cite this work as:
 Gaussian 16, Revision A.03,
 M. J. Frisch, G. W. Trucks, H. B. Schlegel, G. E. Scuseria, 
 M. A. Robb, J. R. Cheeseman, G. Scalmani, V. Barone, 
 G. A. Petersson, H. Nakatsuji, X. Li, M. Caricato, A. V. Marenich, 
 J. Bloino, B. G. Janesko, R. Gomperts, B. Mennucci, H. P. Hratchian, 
 J. V. Ortiz, A. F. Izmaylov, J. L. Sonnenberg, D. Williams-Young, 
 F. Ding, F. Lipparini, F. Egidi, J. Goings, B. Peng, A. Petrone, 
 T. Henderson, D. Ranasinghe, V. G. Zakrzewski, J. Gao, N. Rega, 
 G. Zheng, W. Liang, M. Hada, M. Ehara, K. Toyota, R. Fukuda, 
 J. Hasegawa, M. Ishida, T. Nakajima, Y. Honda, O. Kitao, H. Nakai, 
 T. Vreven, K. Throssell, J. A. Montgomery, Jr., J. E. Peralta, 
 F. Ogliaro, M. J. Bearpark, J. J. Heyd, E. N. Brothers, K. N. Kudin, 
 V. N. Staroverov, T. A. Keith, R. Kobayashi, J. Normand, 
 K. Raghavachari, A. P. Rendell, J. C. Burant, S. S. Iyengar, 
 J. Tomasi, M. Cossi, J. M. Millam, M. Klene, C. Adamo, R. Cammi, 
 J. W. Ochterski, R. L. Martin, K. Morokuma, O. Farkas, 
 J. B. Foresman, and D. J. Fox, Gaussian, Inc., Wallingford CT, 2016.
 
 ******************************************
 Gaussian 16:  EM64L-G16RevA.03 25-Dec-2016
                18-Jan-2019 
 ******************************************
 ----------------------------------------------------------------------
 #m062x/6-311+g(2df,2p) Opt=(ModRedun,Loose,maxcycle=1000) Int(Grid=SG1
 ) freq
 ----------------------------------------------------------------------
 1/6=1000,7=-1,18=120,19=15,26=2,38=1/1,3;
 2/9=110,12=2,17=6,18=5,40=1/2;
 3/5=4,6=6,7=214,11=2,25=1,30=1,71=1,74=-55,75=1/1,2,3;
 4//1;
 5/5=2,38=5/2;
 6/7=2,8=2,9=2,10=2,28=1/1;
 7//1,2,3,16;
 1/6=1000,7=-1,18=20,19=15,26=2/3(2);
 2/9=110/2;
 99//99;
 2/9=110/2;
 3/5=4,6=6,7=214,11=2,25=1,30=1,71=1,74=-55,75=1/1,2,3;
 4/5=5,16=3,69=1/1;
 5/5=2,38=5/2;
 7//1,2,3,16;
 1/6=1000,7=-1,18=20,19=15,26=2/3(-5);
 2/9=110/2;
 6/7=2,8=2,9=2,10=2,19=2,28=1/1;
 99/9=1/99;
 -----
 Title
 -----
 Symbolic Z-matrix:
 Charge =  0 Multiplicity = 2
 C                    -9.24453   1.0618   -0.16857 
 C                    -8.73952   0.27782   0.86501 
 C                    -8.3844    1.86691  -0.90806 
 C                    -7.0194    1.88625  -0.61118 
 C                    -6.48244   1.10396   0.4319 
 C                    -7.37259   0.29758   1.16251 
 H                    -8.77153   2.48056  -1.71699 
 H                    -6.36347   2.52067  -1.20518 
 H                    -7.02427  -0.33029   1.97921 
 C                    -4.96555   1.16106   0.71287 
 C                    -4.48689   2.45544   1.09786 
 C                    -4.19097   0.52153  -0.31652 
 H                    -4.91172   0.47034   1.64277 
 C                    -3.3004    2.99796   0.59891 
 H                    -5.06464   3.04193   1.81237 
 C                    -3.00593   1.07056  -0.81765 
 H                    -4.53069  -0.43863  -0.70884 
 C                    -2.55903   2.30217  -0.34903 
 H                    -1.64106   2.73568  -0.73485 
 H                    -2.44111   0.53798  -1.57846 
 O                    -4.55428  -0.11251   2.36493 
 O                    -4.85972   0.39938   3.69651 
 H                    -3.98688   0.80219   3.85684 
 H                    -10.30676   1.04446  -0.39692 
 H                    -9.40871  -0.35266   1.44511 
 
 The following ModRedundant input section has been read:
 B      13      21 F                                                           
 

 GradGradGradGradGradGradGradGradGradGradGradGradGradGradGradGradGradGrad
 Berny optimization.
 Initialization pass.
                           ----------------------------
                           !    Initial Parameters    !
                           ! (Angstroms and Degrees)  !
 --------------------------                            --------------------------
 ! Name  Definition              Value          Derivative Info.                !
 --------------------------------------------------------------------------------
 ! R1    R(1,2)                  1.3921         estimate D2E/DX2                !
 ! R2    R(1,3)                  1.391          estimate D2E/DX2                !
 ! R3    R(1,24)                 1.0866         estimate D2E/DX2                !
 ! R4    R(2,6)                  1.3991         estimate D2E/DX2                !
 ! R5    R(2,25)                 1.0871         estimate D2E/DX2                !
 ! R6    R(3,4)                  1.397          estimate D2E/DX2                !
 ! R7    R(3,7)                  1.0866         estimate D2E/DX2                !
 ! R8    R(4,5)                  1.4101         estimate D2E/DX2                !
 ! R9    R(4,8)                  1.0888         estimate D2E/DX2                !
 ! R10   R(5,6)                  1.4058         estimate D2E/DX2                !
 ! R11   R(5,10)                 1.5437         estimate D2E/DX2                !
 ! R12   R(6,9)                  1.0874         estimate D2E/DX2                !
 ! R13   R(10,11)                1.4327         estimate D2E/DX2                !
 ! R14   R(10,12)                1.4383         estimate D2E/DX2                !
 ! R15   R(10,13)                1.1596         estimate D2E/DX2                !
 ! R16   R(11,14)                1.3968         estimate D2E/DX2                !
 ! R17   R(11,15)                1.0901         estimate D2E/DX2                !
 ! R18   R(12,16)                1.3989         estimate D2E/DX2                !
 ! R19   R(12,17)                1.0914         estimate D2E/DX2                !
 ! R20   R(13,21)                0.9945         Frozen                          !
 ! R21   R(14,18)                1.3901         estimate D2E/DX2                !
 ! R22   R(16,18)                1.3915         estimate D2E/DX2                !
 ! R23   R(16,20)                1.087          estimate D2E/DX2                !
 ! R24   R(18,19)                1.086          estimate D2E/DX2                !
 ! R25   R(21,22)                1.4589         estimate D2E/DX2                !
 ! R26   R(22,23)                0.9746         estimate D2E/DX2                !
 ! A1    A(2,1,3)              119.7589         estimate D2E/DX2                !
 ! A2    A(2,1,24)             120.1097         estimate D2E/DX2                !
 ! A3    A(3,1,24)             120.1314         estimate D2E/DX2                !
 ! A4    A(1,2,6)              120.2888         estimate D2E/DX2                !
 ! A5    A(1,2,25)             119.966          estimate D2E/DX2                !
 ! A6    A(6,2,25)             119.7452         estimate D2E/DX2                !
 ! A7    A(1,3,4)              119.9478         estimate D2E/DX2                !
 ! A8    A(1,3,7)              120.1536         estimate D2E/DX2                !
 ! A9    A(4,3,7)              119.8986         estimate D2E/DX2                !
 ! A10   A(3,4,5)              121.4386         estimate D2E/DX2                !
 ! A11   A(3,4,8)              118.7332         estimate D2E/DX2                !
 ! A12   A(5,4,8)              119.8281         estimate D2E/DX2                !
 ! A13   A(4,5,6)              117.4864         estimate D2E/DX2                !
 ! A14   A(4,5,10)             119.2283         estimate D2E/DX2                !
 ! A15   A(6,5,10)             123.284          estimate D2E/DX2                !
 ! A16   A(2,6,5)              121.0793         estimate D2E/DX2                !
 ! A17   A(2,6,9)              117.6775         estimate D2E/DX2                !
 ! A18   A(5,6,9)              121.243          estimate D2E/DX2                !
 ! A19   A(5,10,11)            114.2423         estimate D2E/DX2                !
 ! A20   A(5,10,12)            112.4868         estimate D2E/DX2                !
 ! A21   A(5,10,13)             99.7606         estimate D2E/DX2                !
 ! A22   A(11,10,12)           114.4631         estimate D2E/DX2                !
 ! A23   A(11,10,13)           107.8867         estimate D2E/DX2                !
 ! A24   A(12,10,13)           106.5038         estimate D2E/DX2                !
 ! A25   A(10,11,14)           122.5948         estimate D2E/DX2                !
 ! A26   A(10,11,15)           119.0206         estimate D2E/DX2                !
 ! A27   A(14,11,15)           118.3836         estimate D2E/DX2                !
 ! A28   A(10,12,16)           122.5544         estimate D2E/DX2                !
 ! A29   A(10,12,17)           118.7382         estimate D2E/DX2                !
 ! A30   A(16,12,17)           118.6971         estimate D2E/DX2                !
 ! A31   A(10,13,21)           161.4598         estimate D2E/DX2                !
 ! A32   A(11,14,18)           120.1462         estimate D2E/DX2                !
 ! A33   A(12,16,18)           119.9216         estimate D2E/DX2                !
 ! A34   A(12,16,20)           119.9098         estimate D2E/DX2                !
 ! A35   A(18,16,20)           120.1665         estimate D2E/DX2                !
 ! A36   A(14,18,16)           120.0929         estimate D2E/DX2                !
 ! A37   A(14,18,19)           119.5549         estimate D2E/DX2                !
 ! A38   A(16,18,19)           120.3406         estimate D2E/DX2                !
 ! A39   A(13,21,22)           112.4513         estimate D2E/DX2                !
 ! A40   A(21,22,23)            96.1809         estimate D2E/DX2                !
 ! D1    D(3,1,2,6)              0.0424         estimate D2E/DX2                !
 ! D2    D(3,1,2,25)          -179.9994         estimate D2E/DX2                !
 ! D3    D(24,1,2,6)          -179.9797         estimate D2E/DX2                !
 ! D4    D(24,1,2,25)           -0.0216         estimate D2E/DX2                !
 ! D5    D(2,1,3,4)             -0.0223         estimate D2E/DX2                !
 ! D6    D(2,1,3,7)            179.9289         estimate D2E/DX2                !
 ! D7    D(24,1,3,4)           179.9999         estimate D2E/DX2                !
 ! D8    D(24,1,3,7)            -0.049          estimate D2E/DX2                !
 ! D9    D(1,2,6,5)              0.0591         estimate D2E/DX2                !
 ! D10   D(1,2,6,9)            179.9198         estimate D2E/DX2                !
 ! D11   D(25,2,6,5)          -179.8991         estimate D2E/DX2                !
 ! D12   D(25,2,6,9)            -0.0384         estimate D2E/DX2                !
 ! D13   D(1,3,4,5)             -0.1            estimate D2E/DX2                !
 ! D14   D(1,3,4,8)            179.7618         estimate D2E/DX2                !
 ! D15   D(7,3,4,5)            179.9488         estimate D2E/DX2                !
 ! D16   D(7,3,4,8)             -0.1895         estimate D2E/DX2                !
 ! D17   D(3,4,5,6)              0.1951         estimate D2E/DX2                !
 ! D18   D(3,4,5,10)           179.8039         estimate D2E/DX2                !
 ! D19   D(8,4,5,6)           -179.6652         estimate D2E/DX2                !
 ! D20   D(8,4,5,10)            -0.0564         estimate D2E/DX2                !
 ! D21   D(4,5,6,2)             -0.1741         estimate D2E/DX2                !
 ! D22   D(4,5,6,9)            179.9702         estimate D2E/DX2                !
 ! D23   D(10,5,6,2)          -179.7657         estimate D2E/DX2                !
 ! D24   D(10,5,6,9)             0.3786         estimate D2E/DX2                !
 ! D25   D(4,5,10,11)           61.8257         estimate D2E/DX2                !
 ! D26   D(4,5,10,12)          -70.8563         estimate D2E/DX2                !
 ! D27   D(4,5,10,13)          176.613          estimate D2E/DX2                !
 ! D28   D(6,5,10,11)         -118.5894         estimate D2E/DX2                !
 ! D29   D(6,5,10,12)          108.7285         estimate D2E/DX2                !
 ! D30   D(6,5,10,13)           -3.8022         estimate D2E/DX2                !
 ! D31   D(5,10,11,14)        -137.1088         estimate D2E/DX2                !
 ! D32   D(5,10,11,15)          43.2479         estimate D2E/DX2                !
 ! D33   D(12,10,11,14)         -5.3731         estimate D2E/DX2                !
 ! D34   D(12,10,11,15)        174.9836         estimate D2E/DX2                !
 ! D35   D(13,10,11,14)        112.9717         estimate D2E/DX2                !
 ! D36   D(13,10,11,15)        -66.6716         estimate D2E/DX2                !
 ! D37   D(5,10,12,16)         137.6869         estimate D2E/DX2                !
 ! D38   D(5,10,12,17)         -43.4968         estimate D2E/DX2                !
 ! D39   D(11,10,12,16)          5.1135         estimate D2E/DX2                !
 ! D40   D(11,10,12,17)       -176.0702         estimate D2E/DX2                !
 ! D41   D(13,10,12,16)       -114.0119         estimate D2E/DX2                !
 ! D42   D(13,10,12,17)         64.8044         estimate D2E/DX2                !
 ! D43   D(5,10,13,21)         165.1674         estimate D2E/DX2                !
 ! D44   D(11,10,13,21)        -75.2746         estimate D2E/DX2                !
 ! D45   D(12,10,13,21)         48.0554         estimate D2E/DX2                !
 ! D46   D(10,11,14,18)          2.6019         estimate D2E/DX2                !
 ! D47   D(15,11,14,18)       -177.7526         estimate D2E/DX2                !
 ! D48   D(10,12,16,18)         -2.0762         estimate D2E/DX2                !
 ! D49   D(10,12,16,20)        178.4564         estimate D2E/DX2                !
 ! D50   D(17,12,16,18)        179.107          estimate D2E/DX2                !
 ! D51   D(17,12,16,20)         -0.3604         estimate D2E/DX2                !
 ! D52   D(10,13,21,22)        120.9474         estimate D2E/DX2                !
 ! D53   D(11,14,18,16)          0.87           estimate D2E/DX2                !
 ! D54   D(11,14,18,19)        179.6339         estimate D2E/DX2                !
 ! D55   D(12,16,18,14)         -1.1183         estimate D2E/DX2                !
 ! D56   D(12,16,18,19)       -179.8724         estimate D2E/DX2                !
 ! D57   D(20,16,18,14)        178.3478         estimate D2E/DX2                !
 ! D58   D(20,16,18,19)         -0.4064         estimate D2E/DX2                !
 ! D59   D(13,21,22,23)        -99.9022         estimate D2E/DX2                !
 --------------------------------------------------------------------------------
 Trust Radius=3.00D-01 FncErr=1.00D-05 GrdErr=1.00D-04 EigMax=2.50D+02 EigMin=1.00D-04
 Number of steps in this run=    150 maximum allowed number of steps=    150.
 GradGradGradGradGradGradGradGradGradGradGradGradGradGradGradGradGradGrad

                          Input orientation:                          
 ---------------------------------------------------------------------
 Center     Atomic      Atomic             Coordinates (Angstroms)
 Number     Number       Type             X           Y           Z
 ---------------------------------------------------------------------
      1          6           0       -9.244530    1.061800   -0.168570
      2          6           0       -8.739520    0.277820    0.865010
      3          6           0       -8.384400    1.866910   -0.908060
      4          6           0       -7.019400    1.886250   -0.611180
      5          6           0       -6.482440    1.103960    0.431900
      6          6           0       -7.372590    0.297580    1.162510
      7          1           0       -8.771530    2.480560   -1.716990
      8          1           0       -6.363470    2.520670   -1.205180
      9          1           0       -7.024270   -0.330290    1.979210
     10          6           0       -4.965550    1.161060    0.712870
     11          6           0       -4.486890    2.455440    1.097860
     12          6           0       -4.190970    0.521530   -0.316520
     13          1           0       -4.911720    0.470340    1.642770
     14          6           0       -3.300400    2.997960    0.598910
     15          1           0       -5.064640    3.041930    1.812370
     16          6           0       -3.005930    1.070560   -0.817650
     17          1           0       -4.530690   -0.438630   -0.708840
     18          6           0       -2.559030    2.302170   -0.349030
     19          1           0       -1.641060    2.735680   -0.734850
     20          1           0       -2.441110    0.537980   -1.578460
     21          8           0       -4.554280   -0.112510    2.364930
     22          8           0       -4.859720    0.399380    3.696510
     23          1           0       -3.986880    0.802190    3.856840
     24          1           0      -10.306760    1.044460   -0.396920
     25          1           0       -9.408710   -0.352660    1.445110
 ---------------------------------------------------------------------
                    Distance matrix (angstroms):
                    1          2          3          4          5
     1  C    0.000000
     2  C    1.392102   0.000000
     3  C    1.390996   2.407300   0.000000
     4  C    2.413882   2.779388   1.397046   0.000000
     5  C    2.826921   2.442233   2.448477   1.410078   0.000000
     6  C    2.420737   1.399069   2.788156   2.407196   1.405847
     7  H    2.152722   3.394085   1.086648   2.155453   3.428219
     8  H    3.391662   3.868033   2.144724   1.088838   2.168237
     9  H    3.388278   2.133851   3.874786   3.409281   2.178261
    10  C    4.369950   3.878931   3.848918   2.548982   1.543749
    11  C    5.116758   4.783420   4.422744   3.107797   2.500444
    12  C    5.084511   4.705817   4.443515   3.154251   2.479958
    13  H    4.733288   3.910758   4.529531   3.395203   2.082028
    14  C    6.298446   6.087199   5.421927   4.065855   3.706819
    15  H    5.031552   4.694948   4.449968   3.321186   2.769762
    16  C    6.272281   6.027755   5.437857   4.100722   3.694403
    17  H    4.976291   4.550226   4.495140   3.407093   2.736823
    18  C    6.801985   6.615916   5.868296   4.487384   4.175968
    19  H    7.806107   7.680414   6.801279   5.446409   5.240494
    20  H    6.967690   6.760784   6.126842   4.869723   4.549091
    21  O    5.458578   4.462998   5.412983   4.350757   2.989014
    22  O    5.882534   4.804687   5.981562   5.042935   3.713130
    23  H    6.626780   5.640354   6.570851   5.507682   4.248423
    24  H    1.086636   2.153241   2.152477   3.400184   3.913554
    25  H    2.152119   1.087123   3.393098   3.866503   3.422191
                    6          7          8          9         10
     6  C    0.000000
     7  H    3.874785   0.000000
     8  H    3.400942   2.462176   0.000000
     9  H    1.087450   4.961420   4.324924   0.000000
    10  C    2.596462   4.704337   2.735258   2.840083   0.000000
    11  C    3.603860   5.126612   2.971498   3.869802   1.432743
    12  C    3.515735   5.175002   3.083186   3.744805   1.438269
    13  H    2.513240   5.497918   3.797664   2.284090   1.159615
    14  C    4.918580   5.963586   3.586774   5.181668   2.481917
    15  H    3.644229   5.149034   3.326301   3.903825   2.180915
    16  C    4.856568   6.003254   3.677781   5.092334   2.488130
    17  H    3.481430   5.246214   3.516091   3.668146   2.183889
    18  C    5.428950   6.363827   3.905701   5.682334   2.867246
    19  H    6.511125   7.202311   4.750642   6.763523   3.953170
    20  H    5.647141   6.623219   4.410817   5.866538   3.465721
    21  O    3.091417   6.416485   4.790876   2.509394   2.126129
    22  O    3.570159   6.995681   5.548667   2.857764   3.081147
    23  H    4.356269   7.535077   5.850248   3.746164   3.312270
    24  H    3.405731   2.482317   4.287425   4.279097   5.456533
    25  H    2.156029   4.293252   4.955154   2.443628   4.750705
                   11         12         13         14         15
    11  C    0.000000
    12  C    2.414135   0.000000
    13  H    2.101911   2.088281   0.000000
    14  C    1.396795   2.786365   3.174092   0.000000
    15  H    1.090087   3.412900   2.581709   2.141719   0.000000
    16  C    2.789321   1.398887   3.169537   2.410026   3.878349
    17  H    3.411997   1.091436   2.549800   3.877367   4.330808
    18  C    2.415290   2.415567   3.585808   1.390088   3.390719
    19  H    3.396485   3.402867   4.634874   2.145021   4.278203
    20  H    3.876152   2.157492   4.060149   3.395706   4.964917
    21  O    2.864328   2.779240   0.994481   3.790259   3.242882
    22  O    3.334571   4.070204   2.055623   4.333500   3.251930
    23  H    3.255029   4.187763   2.422305   3.988329   3.218363
    24  H    6.172205   6.138632   5.796241   7.341452   6.029152
    25  H    5.677175   5.576052   4.575950   7.018131   5.525311
                   16         17         18         19         20
    16  C    0.000000
    17  H    2.148112   0.000000
    18  C    1.391470   3.395422   0.000000
    19  H    2.154611   4.292654   1.086028   0.000000
    20  H    1.086966   2.465025   2.153548   2.486291   0.000000
    21  O    3.731737   3.091112   4.144548   5.119343   4.520946
    22  O    4.925917   4.496402   5.027940   5.954412   5.804670
    23  H    4.783842   4.762436   4.688074   5.506802   5.657004
    24  H    7.312989   5.971586   7.849296   8.835654   7.970007
    25  H    6.938388   5.333101   7.562088   8.638661   7.647396
                   21         22         23         24         25
    21  O    0.000000
    22  O    1.458914   0.000000
    23  H    1.839678   0.974583   0.000000
    24  H    6.485169   6.844161   7.621945   0.000000
    25  H    4.946638   5.131050   6.045359   2.480224   0.000000
 Stoichiometry    C12H11O2(2)
 Framework group  C1[X(C12H11O2)]
 Deg. of freedom    69
 Full point group                 C1      NOp   1
 Largest Abelian subgroup         C1      NOp   1
 Largest concise Abelian subgroup C1      NOp   1
                         Standard orientation:                         
 ---------------------------------------------------------------------
 Center     Atomic      Atomic             Coordinates (Angstroms)
 Number     Number       Type             X           Y           Z
 ---------------------------------------------------------------------
      1          6           0       -3.654975   -0.546979   -0.063893
      2          6           0       -3.147715    0.706557    0.266684
      3          6           0       -2.782029   -1.592975   -0.344477
      4          6           0       -1.401903   -1.382142   -0.294097
      5          6           0       -0.861960   -0.121915    0.035464
      6          6           0       -1.765574    0.917698    0.316698
      7          1           0       -3.171001   -2.574368   -0.602108
      8          1           0       -0.736691   -2.215766   -0.513486
      9          1           0       -1.415877    1.913633    0.578180
     10          6           0        0.671202    0.052842    0.080556
     11          6           0        1.327094   -0.181646   -1.171471
     12          6           0        1.268981   -0.621421    1.201558
     13          1           0        0.733043    1.188277    0.307868
     14          6           0        2.515596   -0.908300   -1.273817
     15          1           0        0.888634    0.225641   -2.082602
     16          6           0        2.456582   -1.352822    1.094123
     17          1           0        0.787666   -0.544016    2.178071
     18          6           0        3.081757   -1.483632   -0.142093
     19          1           0        4.002861   -2.051645   -0.233663
     20          1           0        2.884033   -1.824789    1.975048
     21          8           0        1.088035    2.079247    0.570823
     22          8           0        0.968073    3.064504   -0.498432
     23          1           0        1.892019    3.002652   -0.802256
     24          1           0       -4.728985   -0.707640   -0.102197
     25          1           0       -3.826894    1.526428    0.486602
 ---------------------------------------------------------------------
 Rotational constants (GHZ):           1.0327989           0.5259060           0.4021351
 Standard basis: 6-311+G(2df,2p) (5D, 7F)
 There are   645 symmetry adapted cartesian basis functions of A   symmetry.
 There are   575 symmetry adapted basis functions of A   symmetry.
   575 basis functions,   849 primitive gaussians,   645 cartesian basis functions
    50 alpha electrons       49 beta electrons
       nuclear repulsion energy       823.9293784430 Hartrees.
 NAtoms=   25 NActive=   25 NUniq=   25 SFac= 1.00D+00 NAtFMM=   60 NAOKFM=F Big=F
 Integral buffers will be    131072 words long.
 Raffenetti 2 integral format.
 Two-electron integral symmetry is turned on.
 One-electron integrals computed using PRISM.
 NBasis=   575 RedAO= T EigKep=  1.90D-06  NBF=   575
 NBsUse=   574 1.00D-06 EigRej=  8.45D-07 NBFU=   574
 ExpMin= 4.38D-02 ExpMax= 8.59D+03 ExpMxC= 1.30D+03 IAcc=2 IRadAn=         4 AccDes= 0.00D+00
 Harris functional with IExCor= 1009 and IRadAn=       4 diagonalized for initial guess.
 HarFok:  IExCor= 1009 AccDes= 0.00D+00 IRadAn=         4 IDoV= 1 UseB2=F ITyADJ=14
 ICtDFT=  3500011 ScaDFX=  1.000000  1.000000  1.000000  1.000000
 FoFCou: FMM=F IPFlag=           0 FMFlag=      100000 FMFlg1=           0
         NFxFlg=           0 DoJE=T BraDBF=F KetDBF=T FulRan=T
         wScrn=  0.000000 ICntrl=       500 IOpCl=  0 I1Cent=   200000004 NGrid=           0
         NMat0=    1 NMatS0=      1 NMatT0=    0 NMatD0=    1 NMtDS0=    0 NMtDT0=    0
 Petite list used in FoFCou.
 Initial guess <Sx>= 0.0000 <Sy>= 0.0000 <Sz>= 0.5000 <S**2>= 0.7500 S= 0.5000
 Requested convergence on RMS density matrix=1.00D-08 within 128 cycles.
 Requested convergence on MAX density matrix=1.00D-06.
 Requested convergence on             energy=1.00D-06.
 No special actions if energy rises.
 SCF Done:  E(UM062X) =  -613.994542430     A.U. after   20 cycles
            NFock= 20  Conv=0.89D-08     -V/T= 2.0039
 <Sx>= 0.0000 <Sy>= 0.0000 <Sz>= 0.5000 <S**2>= 0.7645 S= 0.5072
 <L.S>= 0.000000000000E+00
 Annihilation of the first spin contaminant:
 S**2 before annihilation     0.7645,   after     0.7501

 **********************************************************************

            Population analysis using the SCF density.

 **********************************************************************

 Orbital symmetries:
 Alpha Orbitals:
       Occupied  (A) (A) (A) (A) (A) (A) (A) (A) (A) (A) (A) (A)
                 (A) (A) (A) (A) (A) (A) (A) (A) (A) (A) (A) (A)
                 (A) (A) (A) (A) (A) (A) (A) (A) (A) (A) (A) (A)
                 (A) (A) (A) (A) (A) (A) (A) (A) (A) (A) (A) (A)
                 (A) (A)
       Virtual   (A) (A) (A) (A) (A) (A) (A) (A) (A) (A) (A) (A)
                 (A) (A) (A) (A) (A) (A) (A) (A) (A) (A) (A) (A)
                 (A) (A) (A) (A) (A) (A) (A) (A) (A) (A) (A) (A)
                 (A) (A) (A) (A) (A) (A) (A) (A) (A) (A) (A) (A)
                 (A) (A) (A) (A) (A) (A) (A) (A) (A) (A) (A) (A)
                 (A) (A) (A) (A) (A) (A) (A) (A) (A) (A) (A) (A)
                 (A) (A) (A) (A) (A) (A) (A) (A) (A) (A) (A) (A)
                 (A) (A) (A) (A) (A) (A) (A) (A) (A) (A) (A) (A)
                 (A) (A) (A) (A) (A) (A) (A) (A) (A) (A) (A) (A)
                 (A) (A) (A) (A) (A) (A) (A) (A) (A) (A) (A) (A)
                 (A) (A) (A) (A) (A) (A) (A) (A) (A) (A) (A) (A)
                 (A) (A) (A) (A) (A) (A) (A) (A) (A) (A) (A) (A)
                 (A) (A) (A) (A) (A) (A) (A) (A) (A) (A) (A) (A)
                 (A) (A) (A) (A) (A) (A) (A) (A) (A) (A) (A) (A)
                 (A) (A) (A) (A) (A) (A) (A) (A) (A) (A) (A) (A)
                 (A) (A) (A) (A) (A) (A) (A) (A) (A) (A) (A) (A)
                 (A) (A) (A) (A) (A) (A) (A) (A) (A) (A) (A) (A)
                 (A) (A) (A) (A) (A) (A) (A) (A) (A) (A) (A) (A)
                 (A) (A) (A) (A) (A) (A) (A) (A) (A) (A) (A) (A)
                 (A) (A) (A) (A) (A) (A) (A) (A) (A) (A) (A) (A)
                 (A) (A) (A) (A) (A) (A) (A) (A) (A) (A) (A) (A)
                 (A) (A) (A) (A) (A) (A) (A) (A) (A) (A) (A) (A)
                 (A) (A) (A) (A) (A) (A) (A) (A) (A) (A) (A) (A)
                 (A) (A) (A) (A) (A) (A) (A) (A) (A) (A) (A) (A)
                 (A) (A) (A) (A) (A) (A) (A) (A) (A) (A) (A) (A)
                 (A) (A) (A) (A) (A) (A) (A) (A) (A) (A) (A) (A)
                 (A) (A) (A) (A) (A) (A) (A) (A) (A) (A) (A) (A)
                 (A) (A) (A) (A) (A) (A) (A) (A) (A) (A) (A) (A)
                 (A) (A) (A) (A) (A) (A) (A) (A) (A) (A) (A) (A)
                 (A) (A) (A) (A) (A) (A) (A) (A) (A) (A) (A) (A)
                 (A) (A) (A) (A) (A) (A) (A) (A) (A) (A) (A) (A)
                 (A) (A) (A) (A) (A) (A) (A) (A) (A) (A) (A) (A)
                 (A) (A) (A) (A) (A) (A) (A) (A) (A) (A) (A) (A)
                 (A) (A) (A) (A) (A) (A) (A) (A) (A) (A) (A) (A)
                 (A) (A) (A) (A) (A) (A) (A) (A) (A) (A) (A) (A)
                 (A) (A) (A) (A) (A) (A) (A) (A) (A) (A) (A) (A)
                 (A) (A) (A) (A) (A) (A) (A) (A) (A) (A) (A) (A)
                 (A) (A) (A) (A) (A) (A) (A) (A) (A) (A) (A) (A)
                 (A) (A) (A) (A) (A) (A) (A) (A) (A) (A) (A) (A)
                 (A) (A) (A) (A) (A) (A) (A) (A) (A) (A) (A) (A)
                 (A) (A) (A) (A) (A) (A) (A) (A) (A) (A) (A) (A)
                 (A) (A) (A) (A) (A) (A) (A) (A) (A) (A) (A) (A)
                 (A) (A) (A) (A) (A) (A) (A) (A) (A) (A) (A) (A)
                 (A) (A) (A) (A) (A) (A) (A) (A)
 Beta  Orbitals:
       Occupied  (A) (A) (A) (A) (A) (A) (A) (A) (A) (A) (A) (A)
                 (A) (A) (A) (A) (A) (A) (A) (A) (A) (A) (A) (A)
                 (A) (A) (A) (A) (A) (A) (A) (A) (A) (A) (A) (A)
                 (A) (A) (A) (A) (A) (A) (A) (A) (A) (A) (A) (A)
                 (A)
       Virtual   (A) (A) (A) (A) (A) (A) (A) (A) (A) (A) (A) (A)
                 (A) (A) (A) (A) (A) (A) (A) (A) (A) (A) (A) (A)
                 (A) (A) (A) (A) (A) (A) (A) (A) (A) (A) (A) (A)
                 (A) (A) (A) (A) (A) (A) (A) (A) (A) (A) (A) (A)
                 (A) (A) (A) (A) (A) (A) (A) (A) (A) (A) (A) (A)
                 (A) (A) (A) (A) (A) (A) (A) (A) (A) (A) (A) (A)
                 (A) (A) (A) (A) (A) (A) (A) (A) (A) (A) (A) (A)
                 (A) (A) (A) (A) (A) (A) (A) (A) (A) (A) (A) (A)
                 (A) (A) (A) (A) (A) (A) (A) (A) (A) (A) (A) (A)
                 (A) (A) (A) (A) (A) (A) (A) (A) (A) (A) (A) (A)
                 (A) (A) (A) (A) (A) (A) (A) (A) (A) (A) (A) (A)
                 (A) (A) (A) (A) (A) (A) (A) (A) (A) (A) (A) (A)
                 (A) (A) (A) (A) (A) (A) (A) (A) (A) (A) (A) (A)
                 (A) (A) (A) (A) (A) (A) (A) (A) (A) (A) (A) (A)
                 (A) (A) (A) (A) (A) (A) (A) (A) (A) (A) (A) (A)
                 (A) (A) (A) (A) (A) (A) (A) (A) (A) (A) (A) (A)
                 (A) (A) (A) (A) (A) (A) (A) (A) (A) (A) (A) (A)
                 (A) (A) (A) (A) (A) (A) (A) (A) (A) (A) (A) (A)
                 (A) (A) (A) (A) (A) (A) (A) (A) (A) (A) (A) (A)
                 (A) (A) (A) (A) (A) (A) (A) (A) (A) (A) (A) (A)
                 (A) (A) (A) (A) (A) (A) (A) (A) (A) (A) (A) (A)
                 (A) (A) (A) (A) (A) (A) (A) (A) (A) (A) (A) (A)
                 (A) (A) (A) (A) (A) (A) (A) (A) (A) (A) (A) (A)
                 (A) (A) (A) (A) (A) (A) (A) (A) (A) (A) (A) (A)
                 (A) (A) (A) (A) (A) (A) (A) (A) (A) (A) (A) (A)
                 (A) (A) (A) (A) (A) (A) (A) (A) (A) (A) (A) (A)
                 (A) (A) (A) (A) (A) (A) (A) (A) (A) (A) (A) (A)
                 (A) (A) (A) (A) (A) (A) (A) (A) (A) (A) (A) (A)
                 (A) (A) (A) (A) (A) (A) (A) (A) (A) (A) (A) (A)
                 (A) (A) (A) (A) (A) (A) (A) (A) (A) (A) (A) (A)
                 (A) (A) (A) (A) (A) (A) (A) (A) (A) (A) (A) (A)
                 (A) (A) (A) (A) (A) (A) (A) (A) (A) (A) (A) (A)
                 (A) (A) (A) (A) (A) (A) (A) (A) (A) (A) (A) (A)
                 (A) (A) (A) (A) (A) (A) (A) (A) (A) (A) (A) (A)
                 (A) (A) (A) (A) (A) (A) (A) (A) (A) (A) (A) (A)
                 (A) (A) (A) (A) (A) (A) (A) (A) (A) (A) (A) (A)
                 (A) (A) (A) (A) (A) (A) (A) (A) (A) (A) (A) (A)
                 (A) (A) (A) (A) (A) (A) (A) (A) (A) (A) (A) (A)
                 (A) (A) (A) (A) (A) (A) (A) (A) (A) (A) (A) (A)
                 (A) (A) (A) (A) (A) (A) (A) (A) (A) (A) (A) (A)
                 (A) (A) (A) (A) (A) (A) (A) (A) (A) (A) (A) (A)
                 (A) (A) (A) (A) (A) (A) (A) (A) (A) (A) (A) (A)
                 (A) (A) (A) (A) (A) (A) (A) (A) (A) (A) (A) (A)
                 (A) (A) (A) (A) (A) (A) (A) (A) (A)
 The electronic state is 2-A.
 Alpha  occ. eigenvalues --  -19.68017 -19.65287 -10.59140 -10.57713 -10.57676
 Alpha  occ. eigenvalues --  -10.57424 -10.57225 -10.57109 -10.56816 -10.55515
 Alpha  occ. eigenvalues --  -10.55135 -10.54998 -10.54949 -10.54878  -1.23080
 Alpha  occ. eigenvalues --   -1.02853  -0.98007  -0.96300  -0.89217  -0.85985
 Alpha  occ. eigenvalues --   -0.84774  -0.83054  -0.73065  -0.70205  -0.69583
 Alpha  occ. eigenvalues --   -0.67517  -0.62326  -0.60941  -0.59024  -0.56925
 Alpha  occ. eigenvalues --   -0.54662  -0.54171  -0.52449  -0.51688  -0.50020
 Alpha  occ. eigenvalues --   -0.49238  -0.49018  -0.46842  -0.45260  -0.44488
 Alpha  occ. eigenvalues --   -0.43761  -0.41312  -0.40610  -0.38844  -0.37166
 Alpha  occ. eigenvalues --   -0.34008  -0.33584  -0.31408  -0.30647  -0.29180
 Alpha virt. eigenvalues --   -0.04597  -0.01330   0.00437   0.00709   0.01569
 Alpha virt. eigenvalues --    0.02379   0.02597   0.02918   0.03186   0.04210
 Alpha virt. eigenvalues --    0.04800   0.04909   0.05492   0.06536   0.06919
 Alpha virt. eigenvalues --    0.07634   0.07868   0.09044   0.09817   0.10146
 Alpha virt. eigenvalues --    0.10323   0.10912   0.11476   0.11817   0.12031
 Alpha virt. eigenvalues --    0.12973   0.13605   0.13980   0.14825   0.15007
 Alpha virt. eigenvalues --    0.15217   0.15808   0.16487   0.16765   0.17282
 Alpha virt. eigenvalues --    0.17403   0.18385   0.18836   0.19150   0.19570
 Alpha virt. eigenvalues --    0.20046   0.20123   0.20711   0.20839   0.21264
 Alpha virt. eigenvalues --    0.21336   0.21934   0.22067   0.22385   0.22570
 Alpha virt. eigenvalues --    0.23224   0.23745   0.24063   0.24844   0.24998
 Alpha virt. eigenvalues --    0.25598   0.26056   0.26506   0.26992   0.27048
 Alpha virt. eigenvalues --    0.27610   0.27759   0.29258   0.29623   0.29882
 Alpha virt. eigenvalues --    0.31015   0.31306   0.32589   0.32744   0.33711
 Alpha virt. eigenvalues --    0.34100   0.34770   0.35126   0.35689   0.36442
 Alpha virt. eigenvalues --    0.37913   0.38698   0.41141   0.42786   0.44616
 Alpha virt. eigenvalues --    0.45341   0.45676   0.47751   0.48882   0.49482
 Alpha virt. eigenvalues --    0.50631   0.51063   0.51890   0.53070   0.53807
 Alpha virt. eigenvalues --    0.54679   0.54856   0.55262   0.55922   0.56410
 Alpha virt. eigenvalues --    0.56930   0.57244   0.57960   0.58625   0.59156
 Alpha virt. eigenvalues --    0.59665   0.60291   0.60795   0.62146   0.62858
 Alpha virt. eigenvalues --    0.63427   0.64192   0.64690   0.65035   0.65194
 Alpha virt. eigenvalues --    0.66365   0.66673   0.66829   0.67173   0.67886
 Alpha virt. eigenvalues --    0.68351   0.68654   0.69097   0.69912   0.70171
 Alpha virt. eigenvalues --    0.70679   0.71224   0.72166   0.72439   0.73207
 Alpha virt. eigenvalues --    0.73789   0.74486   0.74851   0.75334   0.76040
 Alpha virt. eigenvalues --    0.77190   0.77275   0.77930   0.78381   0.78750
 Alpha virt. eigenvalues --    0.79916   0.81191   0.82189   0.82651   0.83162
 Alpha virt. eigenvalues --    0.83748   0.84312   0.84837   0.85386   0.86887
 Alpha virt. eigenvalues --    0.87687   0.88892   0.90082   0.91851   0.93174
 Alpha virt. eigenvalues --    0.95867   0.96633   0.97323   0.98159   0.99982
 Alpha virt. eigenvalues --    1.00573   1.01435   1.02632   1.02970   1.04539
 Alpha virt. eigenvalues --    1.05561   1.06789   1.08171   1.08941   1.09561
 Alpha virt. eigenvalues --    1.10061   1.10711   1.12332   1.14313   1.15323
 Alpha virt. eigenvalues --    1.15564   1.16311   1.16749   1.17731   1.17852
 Alpha virt. eigenvalues --    1.19546   1.20154   1.20871   1.23132   1.23890
 Alpha virt. eigenvalues --    1.25157   1.26499   1.27658   1.28202   1.28802
 Alpha virt. eigenvalues --    1.30325   1.30934   1.31561   1.32272   1.32781
 Alpha virt. eigenvalues --    1.33607   1.33967   1.34501   1.34670   1.36154
 Alpha virt. eigenvalues --    1.37328   1.38025   1.38349   1.39177   1.39769
 Alpha virt. eigenvalues --    1.40668   1.41472   1.41795   1.42366   1.43484
 Alpha virt. eigenvalues --    1.43820   1.45132   1.45409   1.47419   1.48378
 Alpha virt. eigenvalues --    1.48974   1.49688   1.50485   1.51886   1.53190
 Alpha virt. eigenvalues --    1.53490   1.54851   1.58003   1.59255   1.61828
 Alpha virt. eigenvalues --    1.63501   1.65312   1.66140   1.68241   1.69235
 Alpha virt. eigenvalues --    1.69698   1.72050   1.72905   1.73748   1.74500
 Alpha virt. eigenvalues --    1.75671   1.76302   1.78460   1.81299   1.82806
 Alpha virt. eigenvalues --    1.85058   1.85735   1.88997   1.89989   1.91769
 Alpha virt. eigenvalues --    1.93561   1.99209   1.99823   2.02162   2.02816
 Alpha virt. eigenvalues --    2.03636   2.07141   2.09205   2.16559   2.21134
 Alpha virt. eigenvalues --    2.28376   2.29213   2.35608   2.39477   2.49197
 Alpha virt. eigenvalues --    2.50311   2.52802   2.54578   2.55980   2.57834
 Alpha virt. eigenvalues --    2.60228   2.60440   2.61068   2.62695   2.63915
 Alpha virt. eigenvalues --    2.65559   2.67775   2.69403   2.70996   2.71219
 Alpha virt. eigenvalues --    2.73144   2.73906   2.74745   2.75165   2.75643
 Alpha virt. eigenvalues --    2.76484   2.77398   2.78035   2.78269   2.79180
 Alpha virt. eigenvalues --    2.79794   2.81012   2.81224   2.81434   2.81835
 Alpha virt. eigenvalues --    2.82265   2.84005   2.84234   2.85148   2.85546
 Alpha virt. eigenvalues --    2.86232   2.87642   2.88037   2.88183   2.89074
 Alpha virt. eigenvalues --    2.90365   2.90673   2.91046   2.92709   2.93325
 Alpha virt. eigenvalues --    2.94470   2.96341   2.98045   2.98786   2.99695
 Alpha virt. eigenvalues --    3.01903   3.02302   3.03324   3.07062   3.08419
 Alpha virt. eigenvalues --    3.09588   3.10255   3.11483   3.12769   3.13390
 Alpha virt. eigenvalues --    3.15035   3.15734   3.16505   3.17115   3.17733
 Alpha virt. eigenvalues --    3.17985   3.18916   3.19643   3.20347   3.20946
 Alpha virt. eigenvalues --    3.21993   3.23451   3.24528   3.26066   3.26391
 Alpha virt. eigenvalues --    3.27901   3.28279   3.29791   3.30522   3.30825
 Alpha virt. eigenvalues --    3.32039   3.33587   3.34463   3.35375   3.36676
 Alpha virt. eigenvalues --    3.37152   3.38670   3.39746   3.40850   3.41183
 Alpha virt. eigenvalues --    3.41537   3.42838   3.44257   3.44882   3.45306
 Alpha virt. eigenvalues --    3.46022   3.46647   3.47858   3.48906   3.51401
 Alpha virt. eigenvalues --    3.51939   3.53024   3.55068   3.55929   3.57196
 Alpha virt. eigenvalues --    3.58463   3.59251   3.61459   3.61878   3.63037
 Alpha virt. eigenvalues --    3.63785   3.66286   3.68312   3.68984   3.69534
 Alpha virt. eigenvalues --    3.69799   3.70732   3.72308   3.73598   3.74471
 Alpha virt. eigenvalues --    3.75408   3.76586   3.77405   3.78865   3.80000
 Alpha virt. eigenvalues --    3.80372   3.80771   3.81006   3.82805   3.83765
 Alpha virt. eigenvalues --    3.84638   3.85610   3.86525   3.89710   3.90778
 Alpha virt. eigenvalues --    3.93400   3.94275   3.95179   3.98203   3.99130
 Alpha virt. eigenvalues --    3.99536   4.01537   4.03291   4.04632   4.04779
 Alpha virt. eigenvalues --    4.06347   4.07763   4.09296   4.10171   4.10944
 Alpha virt. eigenvalues --    4.13244   4.13548   4.15453   4.17555   4.19324
 Alpha virt. eigenvalues --    4.20244   4.22046   4.23652   4.25340   4.26260
 Alpha virt. eigenvalues --    4.28695   4.29972   4.32831   4.34220   4.35061
 Alpha virt. eigenvalues --    4.35685   4.37002   4.37563   4.38264   4.39542
 Alpha virt. eigenvalues --    4.40868   4.42035   4.42724   4.43903   4.45082
 Alpha virt. eigenvalues --    4.45855   4.46463   4.48574   4.48700   4.50284
 Alpha virt. eigenvalues --    4.50720   4.52706   4.53759   4.55735   4.57526
 Alpha virt. eigenvalues --    4.58802   4.61096   4.62457   4.65507   4.66219
 Alpha virt. eigenvalues --    4.66969   4.69574   4.72539   4.73485   4.74062
 Alpha virt. eigenvalues --    4.77943   4.82612   4.84663   4.86128   4.87651
 Alpha virt. eigenvalues --    4.91759   4.94127   4.95143   4.96212   5.00880
 Alpha virt. eigenvalues --    5.03345   5.04685   5.07030   5.08348   5.14850
 Alpha virt. eigenvalues --    5.16807   5.17696   5.21796   5.22289   5.23880
 Alpha virt. eigenvalues --    5.25751   5.28002   5.31708   5.32201   5.33977
 Alpha virt. eigenvalues --    5.37139   5.41800   5.44774   5.49636   5.50951
 Alpha virt. eigenvalues --    5.60042   5.62581   5.63693   5.65420   5.67446
 Alpha virt. eigenvalues --    5.70634   5.73167   5.74228   5.77172   5.83819
 Alpha virt. eigenvalues --    5.85272   5.88842   5.96201   6.11695   6.12350
 Alpha virt. eigenvalues --    6.30440   6.46455   6.66144   6.87130   6.90264
 Alpha virt. eigenvalues --    6.94608   7.08584   7.20039   7.27557   7.33129
 Alpha virt. eigenvalues --    7.42021   7.44006   7.68437   7.76573   8.03060
 Alpha virt. eigenvalues --   23.91984  23.98273  24.35689  24.46483  24.46979
 Alpha virt. eigenvalues --   24.50818  24.63634  24.67791  24.69587  24.73011
 Alpha virt. eigenvalues --   25.02714  25.15297  50.03552  50.14647
  Beta  occ. eigenvalues --  -19.68014 -19.65253 -10.58077 -10.57690 -10.57612
  Beta  occ. eigenvalues --  -10.57433 -10.57226 -10.57144 -10.56742 -10.55513
  Beta  occ. eigenvalues --  -10.55135 -10.54997 -10.54948 -10.54878  -1.23013
  Beta  occ. eigenvalues --   -1.02695  -0.97628  -0.95963  -0.88837  -0.84841
  Beta  occ. eigenvalues --   -0.84710  -0.82823  -0.72690  -0.69555  -0.69208
  Beta  occ. eigenvalues --   -0.67147  -0.61887  -0.60252  -0.58810  -0.56858
  Beta  occ. eigenvalues --   -0.53978  -0.53750  -0.52258  -0.51423  -0.49849
  Beta  occ. eigenvalues --   -0.49148  -0.48994  -0.45743  -0.44613  -0.44090
  Beta  occ. eigenvalues --   -0.43279  -0.41192  -0.40335  -0.38624  -0.37010
  Beta  occ. eigenvalues --   -0.33180  -0.31458  -0.30586  -0.29053
  Beta virt. eigenvalues --   -0.07415  -0.04576  -0.00638   0.00519   0.00694
  Beta virt. eigenvalues --    0.01568   0.02596   0.02842   0.02925   0.03249
  Beta virt. eigenvalues --    0.04205   0.04834   0.05080   0.05717   0.06811
  Beta virt. eigenvalues --    0.07045   0.07604   0.07851   0.09031   0.09845
  Beta virt. eigenvalues --    0.10161   0.10356   0.10983   0.11360   0.11964
  Beta virt. eigenvalues --    0.12179   0.13057   0.13630   0.14060   0.14765
  Beta virt. eigenvalues --    0.15039   0.15268   0.15841   0.16680   0.16714
  Beta virt. eigenvalues --    0.17203   0.17422   0.18569   0.18896   0.19331
  Beta virt. eigenvalues --    0.19680   0.20103   0.20237   0.20685   0.20858
  Beta virt. eigenvalues --    0.21273   0.21405   0.21712   0.22193   0.22309
  Beta virt. eigenvalues --    0.22643   0.23172   0.23726   0.24161   0.24931
  Beta virt. eigenvalues --    0.25005   0.25518   0.25986   0.26420   0.26889
  Beta virt. eigenvalues --    0.27356   0.27729   0.27812   0.29283   0.29605
  Beta virt. eigenvalues --    0.29882   0.31042   0.31265   0.32637   0.32682
  Beta virt. eigenvalues --    0.34252   0.34639   0.34779   0.35140   0.36060
  Beta virt. eigenvalues --    0.36427   0.37995   0.38587   0.41195   0.42893
  Beta virt. eigenvalues --    0.43795   0.44738   0.45440   0.46196   0.48663
  Beta virt. eigenvalues --    0.49040   0.50508   0.50935   0.51857   0.53094
  Beta virt. eigenvalues --    0.53922   0.54621   0.54812   0.55172   0.55687
  Beta virt. eigenvalues --    0.56244   0.56844   0.57112   0.57960   0.58596
  Beta virt. eigenvalues --    0.59083   0.59330   0.60113   0.60519   0.62162
  Beta virt. eigenvalues --    0.63218   0.63517   0.64185   0.64360   0.64974
  Beta virt. eigenvalues --    0.65094   0.66165   0.66583   0.66875   0.67111
  Beta virt. eigenvalues --    0.67841   0.68283   0.68640   0.69128   0.70024
  Beta virt. eigenvalues --    0.70223   0.70770   0.71336   0.72045   0.72365
  Beta virt. eigenvalues --    0.73242   0.73863   0.74245   0.74685   0.75110
  Beta virt. eigenvalues --    0.76055   0.77009   0.77448   0.77816   0.78563
  Beta virt. eigenvalues --    0.78997   0.79915   0.80981   0.81304   0.82404
  Beta virt. eigenvalues --    0.83083   0.83641   0.83910   0.84777   0.85286
  Beta virt. eigenvalues --    0.86850   0.87635   0.88943   0.90118   0.92010
  Beta virt. eigenvalues --    0.93351   0.95746   0.96662   0.97419   0.98303
  Beta virt. eigenvalues --    0.99976   1.00455   1.01367   1.02551   1.02912
  Beta virt. eigenvalues --    1.04476   1.05188   1.06623   1.08218   1.08892
  Beta virt. eigenvalues --    1.09327   1.10067   1.10792   1.12297   1.14271
  Beta virt. eigenvalues --    1.15329   1.15632   1.16234   1.16710   1.17662
  Beta virt. eigenvalues --    1.17752   1.19279   1.20189   1.20904   1.22713
  Beta virt. eigenvalues --    1.23487   1.25058   1.26136   1.27676   1.27793
  Beta virt. eigenvalues --    1.28753   1.30324   1.30737   1.31408   1.32218
  Beta virt. eigenvalues --    1.32734   1.33624   1.33699   1.34444   1.34598
  Beta virt. eigenvalues --    1.36488   1.37029   1.38002   1.38103   1.39125
  Beta virt. eigenvalues --    1.39814   1.40615   1.41222   1.41564   1.42246
  Beta virt. eigenvalues --    1.43022   1.43744   1.45013   1.45233   1.47293
  Beta virt. eigenvalues --    1.48128   1.48970   1.49665   1.50418   1.51564
  Beta virt. eigenvalues --    1.53081   1.53441   1.54707   1.57755   1.59144
  Beta virt. eigenvalues --    1.61599   1.63343   1.65194   1.66093   1.67711
  Beta virt. eigenvalues --    1.68781   1.69372   1.71905   1.72778   1.73491
  Beta virt. eigenvalues --    1.74306   1.75631   1.76279   1.78193   1.81139
  Beta virt. eigenvalues --    1.82755   1.85002   1.85653   1.88471   1.89974
  Beta virt. eigenvalues --    1.91659   1.92531   1.98909   1.99817   2.02102
  Beta virt. eigenvalues --    2.02822   2.03635   2.07169   2.09248   2.16608
  Beta virt. eigenvalues --    2.21139   2.28423   2.29232   2.35640   2.39556
  Beta virt. eigenvalues --    2.49270   2.50463   2.52861   2.54599   2.56151
  Beta virt. eigenvalues --    2.57818   2.60350   2.60568   2.61357   2.62870
  Beta virt. eigenvalues --    2.64031   2.65885   2.68223   2.69568   2.71145
  Beta virt. eigenvalues --    2.71543   2.73142   2.74302   2.74715   2.75211
  Beta virt. eigenvalues --    2.75813   2.76842   2.77445   2.78198   2.78539
  Beta virt. eigenvalues --    2.79583   2.80038   2.81301   2.81526   2.81730
  Beta virt. eigenvalues --    2.82179   2.82549   2.84096   2.84136   2.85260
  Beta virt. eigenvalues --    2.85727   2.86591   2.87706   2.88117   2.88451
  Beta virt. eigenvalues --    2.89354   2.90259   2.90640   2.91082   2.92793
  Beta virt. eigenvalues --    2.93345   2.94460   2.96169   2.98135   2.98975
  Beta virt. eigenvalues --    2.99827   3.02065   3.02315   3.03404   3.07146
  Beta virt. eigenvalues --    3.08689   3.09868   3.10443   3.11484   3.12816
  Beta virt. eigenvalues --    3.13782   3.15221   3.15833   3.16563   3.17184
  Beta virt. eigenvalues --    3.17751   3.18071   3.19131   3.19702   3.20616
  Beta virt. eigenvalues --    3.21299   3.22785   3.23620   3.24638   3.26096
  Beta virt. eigenvalues --    3.26618   3.28140   3.28588   3.30103   3.30541
  Beta virt. eigenvalues --    3.31267   3.32357   3.33869   3.34683   3.35552
  Beta virt. eigenvalues --    3.36746   3.37330   3.38835   3.39789   3.41107
  Beta virt. eigenvalues --    3.41417   3.41895   3.43033   3.44541   3.45177
  Beta virt. eigenvalues --    3.45801   3.46130   3.47132   3.48130   3.49328
  Beta virt. eigenvalues --    3.51798   3.52173   3.53376   3.55256   3.56162
  Beta virt. eigenvalues --    3.58509   3.59683   3.59875   3.61571   3.61809
  Beta virt. eigenvalues --    3.63773   3.64154   3.66602   3.68621   3.69180
  Beta virt. eigenvalues --    3.69740   3.69985   3.71203   3.72363   3.73621
  Beta virt. eigenvalues --    3.74744   3.75428   3.76773   3.77601   3.78878
  Beta virt. eigenvalues --    3.80273   3.80413   3.80953   3.81098   3.82880
  Beta virt. eigenvalues --    3.83974   3.84770   3.85795   3.86634   3.89895
  Beta virt. eigenvalues --    3.91354   3.93626   3.94617   3.95315   3.98415
  Beta virt. eigenvalues --    3.99267   3.99841   4.01835   4.03438   4.04585
  Beta virt. eigenvalues --    4.04804   4.06576   4.07783   4.09440   4.10200
  Beta virt. eigenvalues --    4.10857   4.13295   4.13604   4.15473   4.17574
  Beta virt. eigenvalues --    4.19663   4.20414   4.22156   4.23667   4.25336
  Beta virt. eigenvalues --    4.26269   4.28532   4.30012   4.32821   4.34298
  Beta virt. eigenvalues --    4.35119   4.35777   4.37188   4.37726   4.38455
  Beta virt. eigenvalues --    4.39568   4.41066   4.41976   4.43008   4.44060
  Beta virt. eigenvalues --    4.45161   4.45894   4.46504   4.48648   4.49066
  Beta virt. eigenvalues --    4.50321   4.50718   4.52682   4.53768   4.55710
  Beta virt. eigenvalues --    4.57482   4.58949   4.61122   4.62606   4.65696
  Beta virt. eigenvalues --    4.66269   4.66981   4.69570   4.72552   4.73451
  Beta virt. eigenvalues --    4.74121   4.78210   4.82683   4.85086   4.86285
  Beta virt. eigenvalues --    4.87770   4.91788   4.94340   4.96035   4.97368
  Beta virt. eigenvalues --    5.00947   5.03255   5.04681   5.07061   5.08356
  Beta virt. eigenvalues --    5.15525   5.16860   5.17820   5.21875   5.22354
  Beta virt. eigenvalues --    5.23927   5.25981   5.28325   5.32021   5.32673
  Beta virt. eigenvalues --    5.34029   5.37164   5.41843   5.44879   5.49792
  Beta virt. eigenvalues --    5.51039   5.60434   5.62679   5.63678   5.65343
  Beta virt. eigenvalues --    5.67458   5.70895   5.73195   5.74244   5.77332
  Beta virt. eigenvalues --    5.83811   5.85314   5.88845   5.96204   6.11745
  Beta virt. eigenvalues --    6.12371   6.31578   6.46467   6.66161   6.87152
  Beta virt. eigenvalues --    6.90265   6.94627   7.08591   7.20118   7.27585
  Beta virt. eigenvalues --    7.33174   7.42034   7.44005   7.68458   7.76653
  Beta virt. eigenvalues --    8.03061  23.91991  23.98572  24.35993  24.46485
  Beta virt. eigenvalues --   24.46978  24.50775  24.64169  24.67779  24.69589
  Beta virt. eigenvalues --   24.73044  25.03015  25.15298  50.03550  50.14615
          Condensed to atoms (all electrons):
               1          2          3          4          5          6
     1  C    5.533423  -0.097326   0.054510   0.817759  -0.611679   0.431632
     2  C   -0.097326  10.552439   0.729033  -1.698019  -0.339078  -3.635725
     3  C    0.054510   0.729033   6.471966  -1.379062   0.411502  -0.333940
     4  C    0.817759  -1.698019  -1.379062  13.391198  -1.516905  -3.186651
     5  C   -0.611679  -0.339078   0.411502  -1.516905  11.237853  -0.737554
     6  C    0.431632  -3.635725  -0.333940  -3.186651  -0.737554  13.564774
     7  H    0.042079  -0.005093   0.324436   0.025098  -0.001711  -0.009254
     8  H   -0.029555   0.012655   0.020106   0.274168   0.059898  -0.020901
     9  H   -0.007682   0.035979   0.001985  -0.020528   0.012436   0.338191
    10  C   -0.407892   1.102409  -0.025310  -0.155041  -1.885781  -1.841064
    11  C    0.069836  -0.537324  -0.020637  -0.058790  -1.007448   0.685653
    12  C    0.069773  -0.191050  -0.029103  -0.178063  -1.345347   0.856181
    13  H    0.006246   0.020377   0.003615  -0.007079   0.136799   0.038056
    14  C   -0.001298   0.048553   0.039413   0.031422   0.386705   0.024149
    15  H    0.000107   0.008216   0.000953   0.016145  -0.001275  -0.005338
    16  C   -0.004033   0.083067   0.021971   0.091482   0.609852  -0.096296
    17  H    0.001828   0.005937  -0.007831   0.039617   0.035342  -0.024396
    18  C    0.012277  -0.064556  -0.006786  -0.036906  -0.373832   0.144546
    19  H   -0.000011   0.000060   0.000681   0.006280  -0.002435  -0.001556
    20  H    0.000026   0.000192   0.000165  -0.000072  -0.002968   0.002755
    21  O    0.006139  -0.054826  -0.011908   0.054091  -0.071008  -0.039736
    22  O   -0.000978   0.015753  -0.003349   0.005312  -0.012312  -0.015562
    23  H    0.000120  -0.003774   0.000168   0.007175   0.011585  -0.024936
    24  H    0.342176   0.035085   0.026606  -0.014783   0.015381  -0.029467
    25  H    0.034346   0.325608  -0.010939   0.006162   0.025936  -0.004229
               7          8          9         10         11         12
     1  C    0.042079  -0.029555  -0.007682  -0.407892   0.069836   0.069773
     2  C   -0.005093   0.012655   0.035979   1.102409  -0.537324  -0.191050
     3  C    0.324436   0.020106   0.001985  -0.025310  -0.020637  -0.029103
     4  C    0.025098   0.274168  -0.020528  -0.155041  -0.058790  -0.178063
     5  C   -0.001711   0.059898   0.012436  -1.885781  -1.007448  -1.345347
     6  C   -0.009254  -0.020901   0.338191  -1.841064   0.685653   0.856181
     7  H    0.483384  -0.006156   0.000037   0.001657   0.001018   0.000965
     8  H   -0.006156   0.453538  -0.000019   0.081841  -0.003593  -0.012001
     9  H    0.000037  -0.000019   0.445578   0.013366  -0.010637   0.000660
    10  C    0.001657   0.081841   0.013366  12.662223  -0.423329  -0.757771
    11  C    0.001018  -0.003593  -0.010637  -0.423329   8.683412  -1.018491
    12  C    0.000965  -0.012001   0.000660  -0.757771  -1.018491   9.050960
    13  H   -0.000013   0.000982   0.009102  -0.217579  -0.220537   0.024867
    14  C   -0.000411  -0.002097   0.003196  -0.803479   0.263792  -0.800641
    15  H    0.000008  -0.000037   0.000252   0.018024   0.335243   0.030699
    16  C   -0.000389   0.000351   0.003917  -0.626875  -0.698566  -0.269021
    17  H    0.000007  -0.000037   0.000248  -0.007259   0.002121   0.328349
    18  C    0.000309  -0.000345  -0.001042  -0.893035   0.302869   0.555906
    19  H   -0.000000  -0.000037  -0.000000   0.035299  -0.018863  -0.021089
    20  H    0.000000  -0.000013   0.000001   0.030637  -0.019582  -0.017520
    21  O    0.000007  -0.000488  -0.001334   0.094808  -0.026895   0.103278
    22  O   -0.000001  -0.000037  -0.002056   0.105194   0.067603  -0.063991
    23  H   -0.000000   0.000002   0.000488  -0.025663   0.051295  -0.021361
    24  H   -0.006464  -0.000072  -0.000076   0.005874  -0.000143  -0.000206
    25  H   -0.000072   0.000040  -0.006150  -0.000225   0.000802   0.001368
              13         14         15         16         17         18
     1  C    0.006246  -0.001298   0.000107  -0.004033   0.001828   0.012277
     2  C    0.020377   0.048553   0.008216   0.083067   0.005937  -0.064556
     3  C    0.003615   0.039413   0.000953   0.021971  -0.007831  -0.006786
     4  C   -0.007079   0.031422   0.016145   0.091482   0.039617  -0.036906
     5  C    0.136799   0.386705  -0.001275   0.609852   0.035342  -0.373832
     6  C    0.038056   0.024149  -0.005338  -0.096296  -0.024396   0.144546
     7  H   -0.000013  -0.000411   0.000008  -0.000389   0.000007   0.000309
     8  H    0.000982  -0.002097  -0.000037   0.000351  -0.000037  -0.000345
     9  H    0.009102   0.003196   0.000252   0.003917   0.000248  -0.001042
    10  C   -0.217579  -0.803479   0.018024  -0.626875  -0.007259  -0.893035
    11  C   -0.220537   0.263792   0.335243  -0.698566   0.002121   0.302869
    12  C    0.024867  -0.800641   0.030699  -0.269021   0.328349   0.555906
    13  H    0.502559   0.029824   0.008575   0.004810   0.004403  -0.011536
    14  C    0.029824   6.313993  -0.037373   0.318472   0.002295   0.258933
    15  H    0.008575  -0.037373   0.449094  -0.009150  -0.000023   0.001648
    16  C    0.004810   0.318472  -0.009150   6.538317   0.015586  -0.026043
    17  H    0.004403   0.002295  -0.000023   0.015586   0.445929  -0.019615
    18  C   -0.011536   0.258933   0.001648  -0.026043  -0.019615   5.946159
    19  H    0.000003  -0.005441   0.000050  -0.009967  -0.000050   0.385038
    20  H    0.000322  -0.005512   0.000058   0.343539  -0.004925   0.047769
    21  O    0.073958  -0.049214  -0.001470  -0.032303  -0.002578   0.037873
    22  O   -0.101312   0.006558  -0.005788   0.017532   0.000554  -0.009467
    23  H    0.004621   0.005952  -0.000487  -0.001947  -0.000015   0.003243
    24  H   -0.000003  -0.000036   0.000000  -0.000043  -0.000001  -0.000007
    25  H    0.000050  -0.000273  -0.000000  -0.000273   0.000002   0.000074
              19         20         21         22         23         24
     1  C   -0.000011   0.000026   0.006139  -0.000978   0.000120   0.342176
     2  C    0.000060   0.000192  -0.054826   0.015753  -0.003774   0.035085
     3  C    0.000681   0.000165  -0.011908  -0.003349   0.000168   0.026606
     4  C    0.006280  -0.000072   0.054091   0.005312   0.007175  -0.014783
     5  C   -0.002435  -0.002968  -0.071008  -0.012312   0.011585   0.015381
     6  C   -0.001556   0.002755  -0.039736  -0.015562  -0.024936  -0.029467
     7  H   -0.000000   0.000000   0.000007  -0.000001  -0.000000  -0.006464
     8  H   -0.000037  -0.000013  -0.000488  -0.000037   0.000002  -0.000072
     9  H   -0.000000   0.000001  -0.001334  -0.002056   0.000488  -0.000076
    10  C    0.035299   0.030637   0.094808   0.105194  -0.025663   0.005874
    11  C   -0.018863  -0.019582  -0.026895   0.067603   0.051295  -0.000143
    12  C   -0.021089  -0.017520   0.103278  -0.063991  -0.021361  -0.000206
    13  H    0.000003   0.000322   0.073958  -0.101312   0.004621  -0.000003
    14  C   -0.005441  -0.005512  -0.049214   0.006558   0.005952  -0.000036
    15  H    0.000050   0.000058  -0.001470  -0.005788  -0.000487   0.000000
    16  C   -0.009967   0.343539  -0.032303   0.017532  -0.001947  -0.000043
    17  H   -0.000050  -0.004925  -0.002578   0.000554  -0.000015  -0.000001
    18  C    0.385038   0.047769   0.037873  -0.009467   0.003243  -0.000007
    19  H    0.478621  -0.005966  -0.000072   0.000022  -0.000003   0.000000
    20  H   -0.005966   0.470193  -0.000135   0.000005   0.000002  -0.000000
    21  O   -0.000072  -0.000135   8.255746   0.111727  -0.037269  -0.000004
    22  O    0.000022   0.000005   0.111727   7.835366   0.235356  -0.000000
    23  H   -0.000003   0.000002  -0.037269   0.235356   0.546290  -0.000000
    24  H    0.000000  -0.000000  -0.000004  -0.000000  -0.000000   0.482193
    25  H   -0.000000   0.000000   0.000099  -0.000008  -0.000000  -0.006563
              25
     1  C    0.034346
     2  C    0.325608
     3  C   -0.010939
     4  C    0.006162
     5  C    0.025936
     6  C   -0.004229
     7  H   -0.000072
     8  H    0.000040
     9  H   -0.006150
    10  C   -0.000225
    11  C    0.000802
    12  C    0.001368
    13  H    0.000050
    14  C   -0.000273
    15  H   -0.000000
    16  C   -0.000273
    17  H    0.000002
    18  C    0.000074
    19  H   -0.000000
    20  H    0.000000
    21  O    0.000099
    22  O   -0.000008
    23  H   -0.000000
    24  H   -0.006563
    25  H    0.483429
          Atomic-Atomic Spin Densities.
               1          2          3          4          5          6
     1  C    0.024064  -0.015507  -0.004031  -0.013811  -0.035723   0.034331
     2  C   -0.015507   0.038146   0.011453  -0.005938   0.019213  -0.020584
     3  C   -0.004031   0.011453   0.063096   0.005877   0.010179  -0.050484
     4  C   -0.013811  -0.005938   0.005877   0.129778  -0.018386  -0.131133
     5  C   -0.035723   0.019213   0.010179  -0.018386   0.256992  -0.134856
     6  C    0.034331  -0.020584  -0.050484  -0.131133  -0.134856   0.281650
     7  H   -0.000262   0.000038  -0.000005   0.000178  -0.000028  -0.000211
     8  H    0.001032  -0.000251   0.002592   0.000889  -0.004783  -0.000023
     9  H    0.000013  -0.000185  -0.000254   0.000291  -0.001203  -0.000439
    10  C    0.005364  -0.024702  -0.015681   0.051099  -0.065469  -0.038082
    11  C    0.009141  -0.018592  -0.027235  -0.032350  -0.104092   0.074661
    12  C    0.001513   0.005496  -0.011515  -0.010138   0.022935   0.020885
    13  H    0.000493   0.001682  -0.000513  -0.004613  -0.020744   0.013050
    14  C   -0.004546   0.007073   0.016825   0.037544   0.059009  -0.054114
    15  H   -0.000429   0.000641   0.002061   0.006188   0.010764  -0.007473
    16  C   -0.002056   0.003965   0.005871  -0.001919   0.017854  -0.012523
    17  H    0.000182  -0.000222  -0.000657   0.000380  -0.003355   0.001465
    18  C    0.001859  -0.002924  -0.002669  -0.008126  -0.033460   0.020231
    19  H   -0.000010   0.000016   0.000095   0.000356   0.001146  -0.000281
    20  H   -0.000014   0.000027   0.000190   0.000931   0.000847  -0.000566
    21  O    0.000729  -0.001090  -0.000976   0.001669   0.015911   0.005401
    22  O   -0.000320   0.000583   0.000428  -0.000080  -0.000830  -0.003035
    23  H    0.000011  -0.000145  -0.000021  -0.000100  -0.000538   0.000240
    24  H   -0.000398   0.000189   0.000371   0.000075   0.000177  -0.000345
    25  H    0.000941  -0.001085  -0.000486   0.000300  -0.000998   0.001253
               7          8          9         10         11         12
     1  C   -0.000262   0.001032   0.000013   0.005364   0.009141   0.001513
     2  C    0.000038  -0.000251  -0.000185  -0.024702  -0.018592   0.005496
     3  C   -0.000005   0.002592  -0.000254  -0.015681  -0.027235  -0.011515
     4  C    0.000178   0.000889   0.000291   0.051099  -0.032350  -0.010138
     5  C   -0.000028  -0.004783  -0.001203  -0.065469  -0.104092   0.022935
     6  C   -0.000211  -0.000023  -0.000439  -0.038082   0.074661   0.020885
     7  H    0.000124  -0.000025   0.000000   0.000230   0.000068   0.000006
     8  H   -0.000025   0.000668  -0.000001  -0.000145   0.000822   0.000835
     9  H    0.000000  -0.000001  -0.000029   0.001651   0.000488   0.000001
    10  C    0.000230  -0.000145   0.001651   0.240774   0.045306  -0.046434
    11  C    0.000068   0.000822   0.000488   0.045306   0.103435  -0.028205
    12  C    0.000006   0.000835   0.000001  -0.046434  -0.028205  -0.056969
    13  H   -0.000000  -0.000055  -0.000071   0.009090   0.012553  -0.000135
    14  C   -0.000023  -0.000834  -0.000064  -0.072141  -0.094737   0.018088
    15  H   -0.000001  -0.000046  -0.000014  -0.006246  -0.010473   0.001136
    16  C   -0.000020  -0.000260  -0.000117  -0.039339  -0.000206   0.032909
    17  H   -0.000000   0.000024   0.000001  -0.004696   0.002181   0.010767
    18  C    0.000012   0.000117   0.000022   0.039076   0.036118  -0.014619
    19  H   -0.000000   0.000000  -0.000000  -0.001172  -0.008449  -0.005466
    20  H   -0.000000  -0.000009  -0.000000   0.002842  -0.003763  -0.005609
    21  O   -0.000000   0.000017  -0.000046  -0.033343  -0.007089   0.006180
    22  O    0.000000  -0.000001   0.000024   0.004919  -0.000428  -0.001557
    23  H   -0.000000  -0.000000  -0.000003  -0.000397   0.001958  -0.000068
    24  H    0.000004  -0.000000   0.000000  -0.000048  -0.000016  -0.000001
    25  H   -0.000000   0.000000  -0.000002   0.000015   0.000043   0.000018
              13         14         15         16         17         18
     1  C    0.000493  -0.004546  -0.000429  -0.002056   0.000182   0.001859
     2  C    0.001682   0.007073   0.000641   0.003965  -0.000222  -0.002924
     3  C   -0.000513   0.016825   0.002061   0.005871  -0.000657  -0.002669
     4  C   -0.004613   0.037544   0.006188  -0.001919   0.000380  -0.008126
     5  C   -0.020744   0.059009   0.010764   0.017854  -0.003355  -0.033460
     6  C    0.013050  -0.054114  -0.007473  -0.012523   0.001465   0.020231
     7  H   -0.000000  -0.000023  -0.000001  -0.000020  -0.000000   0.000012
     8  H   -0.000055  -0.000834  -0.000046  -0.000260   0.000024   0.000117
     9  H   -0.000071  -0.000064  -0.000014  -0.000117   0.000001   0.000022
    10  C    0.009090  -0.072141  -0.006246  -0.039339  -0.004696   0.039076
    11  C    0.012553  -0.094737  -0.010473  -0.000206   0.002181   0.036118
    12  C   -0.000135   0.018088   0.001136   0.032909   0.010767  -0.014619
    13  H   -0.003526  -0.008311  -0.001107  -0.004303  -0.000356   0.005100
    14  C   -0.008311   1.072581   0.003021  -0.029908  -0.001692  -0.024436
    15  H   -0.001107   0.003021   0.019541   0.001422  -0.000006  -0.007874
    16  C   -0.004303  -0.029908   0.001422   0.084205  -0.004345  -0.002535
    17  H   -0.000356  -0.001692  -0.000006  -0.004345   0.006790  -0.000201
    18  C    0.005100  -0.024436  -0.007874  -0.002535  -0.000201   0.020831
    19  H   -0.000034   0.005784   0.000116  -0.004976  -0.000013   0.003856
    20  H   -0.000012   0.003965   0.000014   0.002878  -0.000513  -0.001778
    21  O   -0.000824   0.003315   0.000799   0.003856   0.000362  -0.004318
    22  O    0.000253   0.001166   0.000026  -0.000128  -0.000049  -0.000092
    23  H   -0.000253  -0.000577  -0.000044  -0.000083  -0.000000   0.000221
    24  H    0.000000   0.000004   0.000000   0.000004  -0.000000  -0.000001
    25  H   -0.000001  -0.000018  -0.000001  -0.000008   0.000001   0.000004
              19         20         21         22         23         24
     1  C   -0.000010  -0.000014   0.000729  -0.000320   0.000011  -0.000398
     2  C    0.000016   0.000027  -0.001090   0.000583  -0.000145   0.000189
     3  C    0.000095   0.000190  -0.000976   0.000428  -0.000021   0.000371
     4  C    0.000356   0.000931   0.001669  -0.000080  -0.000100   0.000075
     5  C    0.001146   0.000847   0.015911  -0.000830  -0.000538   0.000177
     6  C   -0.000281  -0.000566   0.005401  -0.003035   0.000240  -0.000345
     7  H   -0.000000  -0.000000  -0.000000   0.000000  -0.000000   0.000004
     8  H    0.000000  -0.000009   0.000017  -0.000001  -0.000000  -0.000000
     9  H   -0.000000  -0.000000  -0.000046   0.000024  -0.000003   0.000000
    10  C   -0.001172   0.002842  -0.033343   0.004919  -0.000397  -0.000048
    11  C   -0.008449  -0.003763  -0.007089  -0.000428   0.001958  -0.000016
    12  C   -0.005466  -0.005609   0.006180  -0.001557  -0.000068  -0.000001
    13  H   -0.000034  -0.000012  -0.000824   0.000253  -0.000253   0.000000
    14  C    0.005784   0.003965   0.003315   0.001166  -0.000577   0.000004
    15  H    0.000116   0.000014   0.000799   0.000026  -0.000044   0.000000
    16  C   -0.004976   0.002878   0.003856  -0.000128  -0.000083   0.000004
    17  H   -0.000013  -0.000513   0.000362  -0.000049  -0.000000  -0.000000
    18  C    0.003856  -0.001778  -0.004318  -0.000092   0.000221  -0.000001
    19  H    0.017968   0.000905   0.000042   0.000003  -0.000001   0.000000
    20  H    0.000905   0.003113  -0.000023   0.000005  -0.000000   0.000000
    21  O    0.000042  -0.000023   0.022110  -0.001644   0.000143  -0.000000
    22  O    0.000003   0.000005  -0.001644   0.002253  -0.000618   0.000000
    23  H   -0.000001  -0.000000   0.000143  -0.000618   0.000519   0.000000
    24  H    0.000000   0.000000  -0.000000   0.000000   0.000000  -0.000094
    25  H   -0.000000  -0.000000   0.000005  -0.000002  -0.000000  -0.000002
              25
     1  C    0.000941
     2  C   -0.001085
     3  C   -0.000486
     4  C    0.000300
     5  C   -0.000998
     6  C    0.001253
     7  H   -0.000000
     8  H    0.000000
     9  H   -0.000002
    10  C    0.000015
    11  C    0.000043
    12  C    0.000018
    13  H   -0.000001
    14  C   -0.000018
    15  H   -0.000001
    16  C   -0.000008
    17  H    0.000001
    18  C    0.000004
    19  H   -0.000000
    20  H   -0.000000
    21  O    0.000005
    22  O   -0.000002
    23  H   -0.000000
    24  H   -0.000002
    25  H    0.000150
 Mulliken charges and spin densities:
               1          2
     1  C   -0.261824   0.002566
     2  C   -0.348592  -0.002705
     3  C   -0.278244   0.004510
     4  C   -0.514012   0.008959
     5  C    0.966044  -0.009438
     6  C   -0.079331  -0.000982
     7  H    0.150557   0.000085
     8  H    0.171805   0.000563
     9  H    0.184087   0.000062
    10  C   -0.081030   0.052469
    11  C   -0.398810  -0.048859
    12  C   -0.297351  -0.059949
    13  H    0.688889  -0.002638
    14  C   -0.027484   0.936975
    15  H    0.191869   0.012016
    16  C   -0.273992   0.050237
    17  H    0.184510   0.006047
    18  C   -0.253472   0.024414
    19  H    0.159435   0.009885
    20  H    0.161028   0.003431
    21  O   -0.408484   0.011186
    22  O   -0.186122   0.000876
    23  H    0.249159   0.000243
    24  H    0.150552  -0.000080
    25  H    0.150813   0.000127
 Sum of Mulliken charges =  -0.00000   1.00000
 Mulliken charges and spin densities with hydrogens summed into heavy atoms:
               1          2
     1  C   -0.111272   0.002486
     2  C   -0.197778  -0.002578
     3  C   -0.127686   0.004595
     4  C   -0.342207   0.009522
     5  C    0.966044  -0.009438
     6  C    0.104755  -0.000920
    10  C   -0.081030   0.052469
    11  C   -0.206941  -0.036844
    12  C   -0.112841  -0.053902
    14  C   -0.027484   0.936975
    16  C   -0.112964   0.053668
    18  C   -0.094037   0.034300
    21  O    0.280405   0.008548
    22  O    0.063037   0.001119
 Electronic spatial extent (au):  <R**2>=           2825.7621
 Charge=             -0.0000 electrons
 Dipole moment (field-independent basis, Debye):
    X=              0.5142    Y=             -2.5728    Z=             -0.2910  Tot=              2.6398
 Quadrupole moment (field-independent basis, Debye-Ang):
   XX=            -70.6969   YY=            -84.7057   ZZ=            -82.6855
   XY=             -1.9554   XZ=             -0.7149   YZ=             -3.4303
 Traceless Quadrupole moment (field-independent basis, Debye-Ang):
   XX=              8.6658   YY=             -5.3430   ZZ=             -3.3228
   XY=             -1.9554   XZ=             -0.7149   YZ=             -3.4303
 Octapole moment (field-independent basis, Debye-Ang**2):
  XXX=             -3.0996  YYY=              2.9412  ZZZ=              6.7797  XYY=              5.2024
  XXY=              0.5661  XXZ=              0.9601  XZZ=             13.4626  YZZ=              6.8338
  YYZ=             -6.5969  XYZ=            -18.3397
 Hexadecapole moment (field-independent basis, Debye-Ang**3):
 XXXX=          -2222.3568 YYYY=          -1091.3435 ZZZZ=           -355.6823 XXXY=             -6.5759
 XXXZ=              9.0381 YYYX=             51.3877 YYYZ=            -19.3572 ZZZX=             17.3613
 ZZZY=            -26.2453 XXYY=           -490.5236 XXZZ=           -496.1837 YYZZ=           -238.2817
 XXYZ=            -15.1425 YYXZ=            -10.1396 ZZXY=              2.0852
 N-N= 8.239293784430D+02 E-N=-3.078587443901D+03  KE= 6.115835432559D+02
                          Isotropic Fermi Contact Couplings
        Atom                 a.u.       MegaHertz       Gauss      10(-4) cm-1
     1  C(13)              0.00011       0.12510       0.04464       0.04173
     2  C(13)              0.00018       0.20244       0.07224       0.06753
     3  C(13)              0.00006       0.06567       0.02343       0.02191
     4  C(13)              0.00103       1.15989       0.41388       0.38690
     5  C(13)              0.00080       0.90334       0.32233       0.30132
     6  C(13)              0.00161       1.80840       0.64528       0.60322
     7  H(1)               0.00003       0.13618       0.04859       0.04542
     8  H(1)              -0.00003      -0.12207      -0.04356      -0.04072
     9  H(1)              -0.00000      -0.00338      -0.00120      -0.00113
    10  C(13)              0.04322      48.59290      17.33915      16.20885
    11  C(13)              0.02054      23.08850       8.23855       7.70149
    12  C(13)             -0.00902     -10.14027      -3.61830      -3.38243
    13  H(1)              -0.00143      -6.40978      -2.28717      -2.13807
    14  C(13)              0.52884     594.51865     212.13904     198.31008
    15  H(1)               0.01017      45.44717      16.21668      15.15954
    16  C(13)              0.04087      45.94933      16.39586      15.32705
    17  H(1)               0.00144       6.45800       2.30438       2.15416
    18  C(13)              0.02114      23.76567       8.48018       7.92737
    19  H(1)               0.00985      44.04090      15.71489      14.69046
    20  H(1)               0.00212       9.45618       3.37420       3.15424
    21  O(17)              0.00794      -4.81221      -1.71712      -1.60518
    22  O(17)             -0.00033       0.20143       0.07188       0.06719
    23  H(1)              -0.00001      -0.03133      -0.01118      -0.01045
    24  H(1)              -0.00001      -0.05843      -0.02085      -0.01949
    25  H(1)               0.00005       0.23414       0.08355       0.07810
 --------------------------------------------------------
       Center         ----  Spin Dipole Couplings  ----
                      3XX-RR        3YY-RR        3ZZ-RR
 --------------------------------------------------------
     1   Atom        0.000587     -0.000996      0.000410
     2   Atom        0.001999     -0.000419     -0.001580
     3   Atom        0.002051     -0.000565     -0.001486
     4   Atom        0.002589     -0.001405     -0.001184
     5   Atom        0.009779     -0.003913     -0.005866
     6   Atom        0.001850     -0.000632     -0.001219
     7   Atom        0.001059     -0.000445     -0.000614
     8   Atom        0.003305     -0.001173     -0.002132
     9   Atom        0.000851      0.000050     -0.000902
    10   Atom       -0.024290      0.001973      0.022318
    11   Atom        0.059627     -0.061706      0.002079
    12   Atom        0.001510     -0.028888      0.027377
    13   Atom       -0.007795      0.015985     -0.008190
    14   Atom       -0.226989     -0.405775      0.632763
    15   Atom        0.012601     -0.003031     -0.009570
    16   Atom       -0.011823     -0.019222      0.031046
    17   Atom        0.000191     -0.001064      0.000873
    18   Atom       -0.031564     -0.072043      0.103607
    19   Atom        0.002407     -0.004327      0.001919
    20   Atom       -0.003928     -0.003356      0.007283
    21   Atom       -0.022223      0.022008      0.000214
    22   Atom       -0.004261      0.013319     -0.009058
    23   Atom       -0.001648      0.003458     -0.001810
    24   Atom        0.000747     -0.000417     -0.000330
    25   Atom        0.000673     -0.000305     -0.000368
 --------------------------------------------------------
                        XY            XZ            YZ
 --------------------------------------------------------
     1   Atom       -0.000007     -0.000380     -0.000290
     2   Atom       -0.000300     -0.000530      0.000468
     3   Atom        0.000450     -0.000463      0.000246
     4   Atom        0.001697     -0.000869     -0.000060
     5   Atom        0.000197     -0.001587      0.000918
     6   Atom       -0.002660      0.000261     -0.000724
     7   Atom        0.000478     -0.000268     -0.000064
     8   Atom        0.002296     -0.001791     -0.000478
     9   Atom       -0.001306     -0.000893      0.000638
    10   Atom       -0.005408     -0.040130      0.027585
    11   Atom       -0.092265     -0.038985      0.001887
    12   Atom       -0.036211     -0.015497     -0.014505
    13   Atom        0.000993     -0.002791      0.008853
    14   Atom        0.003487     -0.545534      0.184736
    15   Atom       -0.016268      0.006801     -0.003226
    16   Atom        0.016743     -0.032795      0.003331
    17   Atom       -0.001944     -0.000008     -0.000662
    18   Atom       -0.051580      0.023838     -0.039479
    19   Atom       -0.011400      0.013469     -0.011382
    20   Atom       -0.001255      0.002866     -0.004664
    21   Atom        0.022759      0.017883      0.041174
    22   Atom        0.002964     -0.001196      0.005424
    23   Atom       -0.000769     -0.000571      0.000736
    24   Atom       -0.000004     -0.000162     -0.000007
    25   Atom       -0.000341     -0.000285      0.000121
 --------------------------------------------------------


 ---------------------------------------------------------------------------------
              Anisotropic Spin Dipole Couplings in Principal Axis System
 ---------------------------------------------------------------------------------

       Atom             a.u.   MegaHertz   Gauss  10(-4) cm-1        Axes

              Baa    -0.0011    -0.142    -0.051    -0.047  0.0517  0.9771  0.2062
     1 C(13)  Bbb     0.0002     0.021     0.007     0.007  0.6452 -0.1903  0.7400
              Bcc     0.0009     0.121     0.043     0.040  0.7623  0.0948 -0.6402
 
              Baa    -0.0018    -0.240    -0.086    -0.080  0.1089 -0.2996  0.9478
     2 C(13)  Bbb    -0.0003    -0.046    -0.016    -0.015  0.1836  0.9432  0.2771
              Bcc     0.0021     0.286     0.102     0.095  0.9770 -0.1438 -0.1577
 
              Baa    -0.0016    -0.219    -0.078    -0.073  0.1533 -0.2823  0.9470
     3 C(13)  Bbb    -0.0005    -0.072    -0.026    -0.024 -0.1110  0.9473  0.3004
[...]
   A23        1.40102   0.00036   0.00069  -0.03287   0.00073   1.40174
   A24        1.44286  -0.00016  -0.00147  -0.02761  -0.00131   1.44155
   A25        2.04728  -0.00035   0.00154   0.00029   0.00103   2.04830
   A26        2.09992   0.00008  -0.00187   0.00342  -0.00118   2.09874
   A27        2.13574   0.00027   0.00028  -0.00374   0.00010   2.13584
   A28        2.11324   0.00036  -0.00205   0.00356  -0.00163   2.11162
   A29        2.07708  -0.00037   0.00179  -0.00298   0.00105   2.07813
   A30        2.09286   0.00001   0.00025  -0.00055   0.00051   2.09336
   A31        3.14159  -0.00030  -0.00000   0.00596   0.00000   3.14159
   A32        2.19305   0.00057  -0.00048   0.00000  -0.00031   2.19274
   A33        2.09883   0.00029   0.00079  -0.00019   0.00070   2.09953
   A34        2.09086  -0.00010  -0.00055   0.00136  -0.00036   2.09050
   A35        2.09346  -0.00019  -0.00024  -0.00119  -0.00034   2.09311
   A36        2.03604  -0.00056   0.00003  -0.00095   0.00001   2.03605
   A37        2.13394   0.00019  -0.00008  -0.00062  -0.00006   2.13388
   A38        2.11320   0.00037   0.00005   0.00156   0.00005   2.11325
   A39        1.77471  -0.00014   0.00043   0.00378  -0.00015   1.77456
   A40        1.78212  -0.00031   0.00422   0.00147   0.00289   1.78501
    D1       -0.00632   0.00013  -0.00228   0.00420  -0.00180  -0.00813
    D2        3.13357  -0.00009  -0.00035  -0.00506  -0.00004   3.13353
    D3        3.13880   0.00010  -0.00232   0.00409  -0.00202   3.13678
    D4       -0.00450  -0.00011  -0.00039  -0.00517  -0.00025  -0.00475
    D5       -0.00005  -0.00004  -0.00266   0.00090  -0.00262  -0.00266
    D6       -3.13765  -0.00015  -0.00014  -0.00535  -0.00013  -3.13778
    D7        3.13802  -0.00001  -0.00262   0.00101  -0.00240   3.13562
    D8        0.00042  -0.00012  -0.00010  -0.00524   0.00008   0.00050
    D9        0.00674  -0.00010   0.00571  -0.00752   0.00451   0.01125
   D10        3.13355  -0.00018  -0.00403  -0.00873  -0.00382   3.12973
   D11       -3.13317   0.00011   0.00380   0.00165   0.00276  -3.13041
   D12       -0.00636   0.00004  -0.00594   0.00044  -0.00556  -0.01193
   D13        0.00602  -0.00007   0.00420  -0.00269   0.00434   0.01036
   D14        3.13324   0.00005  -0.00424   0.00628  -0.00416   3.12909
   D15       -3.13954   0.00003   0.00169   0.00353   0.00188  -3.13766
   D16       -0.01231   0.00016  -0.00675   0.01249  -0.00662  -0.01894
   D17       -0.00560   0.00010  -0.00079  -0.00061  -0.00163  -0.00723
   D18        3.13280   0.00034  -0.00346   0.02203  -0.00294   3.12986
   D19       -3.13295  -0.00003   0.00757  -0.00947   0.00677  -3.12618
   D20        0.00545   0.00021   0.00489   0.01317   0.00546   0.01091
   D21       -0.00078  -0.00001  -0.00415   0.00569  -0.00278  -0.00356
   D22       -3.12756   0.00006   0.00561   0.00683   0.00556  -3.12200
   D23       -3.13917  -0.00025  -0.00148  -0.01707  -0.00148  -3.14065
   D24        0.01723  -0.00018   0.00828  -0.01593   0.00686   0.02409
   D25        1.13782  -0.00182  -0.00214  -0.26321  -0.00260   1.13522
   D26       -2.06776  -0.00070  -0.00295  -0.28320  -0.00321  -2.07098
   D27        2.65055  -0.00091  -0.00118  -0.27622  -0.00161   2.64894
   D28       -2.00700  -0.00158  -0.00484  -0.24026  -0.00392  -2.01092
   D29        1.07060  -0.00046  -0.00565  -0.26025  -0.00453   1.06607
   D30       -0.49427  -0.00067  -0.00388  -0.25327  -0.00292  -0.49720
   D31        3.07925   0.00082  -0.00122  -0.03285  -0.00118   3.07807
   D32       -0.03894   0.00103   0.00095  -0.03113   0.00124  -0.03770
   D33        0.00056  -0.00029  -0.00040  -0.01324  -0.00055   0.00001
   D34       -3.11763  -0.00008   0.00176  -0.01152   0.00187  -3.11576
   D35        1.32557  -0.00016  -0.00177  -0.06537  -0.00171   1.32386
   D36       -1.79262   0.00005   0.00039  -0.06365   0.00071  -1.79191
   D37       -3.08213  -0.00069  -0.00229   0.04082  -0.00191  -3.08404
   D38        0.06371  -0.00094   0.00827   0.03110   0.00698   0.07068
   D39       -0.00387   0.00044  -0.00308   0.02124  -0.00252  -0.00639
   D40       -3.14122   0.00019   0.00747   0.01151   0.00637  -3.13485
   D41       -1.30507   0.00003  -0.00295   0.07611  -0.00252  -1.30759
   D42        1.84076  -0.00022   0.00760   0.06638   0.00637   1.84713
   D43        0.30830   0.00020   0.43326   0.04589   0.33847   0.64677
   D44        2.38153   0.00067   0.43365   0.04027   0.33892   2.72045
   D45       -1.78538   0.00031   0.43406   0.05343   0.33929  -1.44609
   D46       -0.00269   0.00005   0.00343  -0.00741   0.00317   0.00048
   D47        3.11499  -0.00017   0.00119  -0.00906   0.00068   3.11567
   D48        0.00911  -0.00034   0.00383  -0.00894   0.00324   0.01235
   D49       -3.14142  -0.00020   0.00302  -0.01184   0.00237  -3.13906
   D50       -3.13676  -0.00009  -0.00682   0.00087  -0.00573   3.14070
   D51       -0.00411   0.00005  -0.00763  -0.00204  -0.00660  -0.01071
   D52       -1.97664   0.00118  -0.43490   0.13875  -0.33984  -2.31648
   D53        0.00767   0.00005  -0.00272   0.01944  -0.00248   0.00518
   D54       -3.13469   0.00006   0.00004   0.01350  -0.00015  -3.13484
   D55       -0.01057   0.00010  -0.00101  -0.01069  -0.00082  -0.01139
   D56        3.13177   0.00009  -0.00373  -0.00482  -0.00312   3.12865
   D57        3.13997  -0.00004  -0.00020  -0.00779   0.00006   3.14003
   D58       -0.00086  -0.00006  -0.00292  -0.00193  -0.00225  -0.00311
   D59       -1.65025  -0.00036   0.00327  -0.03146   0.00050  -1.64975
         Item               Value     Threshold  Converged?
 Maximum Force            0.003726     0.002500     NO 
 RMS     Force            0.000765     0.001667     YES
 Maximum Displacement     0.004070     0.010000     YES
 RMS     Displacement     0.001141     0.006667     YES
 Predicted change in Energy=-1.687115D-05
 GradGradGradGradGradGradGradGradGradGradGradGradGradGradGradGradGradGrad

                          Input orientation:                          
 ---------------------------------------------------------------------
 Center     Atomic      Atomic             Coordinates (Angstroms)
 Number     Number       Type             X           Y           Z
 ---------------------------------------------------------------------
      1          6           0       -9.410626    0.941545   -0.080890
      2          6           0       -8.607372    0.014639    0.567483
      3          6           0       -8.833579    2.057228   -0.678668
      4          6           0       -7.461964    2.241734   -0.622812
      5          6           0       -6.648044    1.307572    0.020340
      6          6           0       -7.229749    0.191011    0.613756
      7          1           0       -9.452079    2.787113   -1.183401
      8          1           0       -7.007341    3.102707   -1.096691
      9          1           0       -6.610347   -0.532404    1.132043
     10          6           0       -5.177135    1.499981    0.065936
     11          6           0       -4.630700    2.587062    0.765735
     12          6           0       -4.315978    0.565805   -0.517621
     13          1           0       -4.580085    0.499303    1.882486
     14          6           0       -3.267193    2.668216    0.835661
     15          1           0       -5.280669    3.309750    1.246083
     16          6           0       -2.934932    0.705266   -0.419336
     17          1           0       -4.735446   -0.265589   -1.060376
     18          6           0       -2.384459    1.778365    0.279973
     19          1           0       -1.312115    1.892715    0.374519
     20          1           0       -2.286930   -0.027740   -0.880247
     21          8           0       -4.304642    0.037648    2.720536
     22          8           0       -4.270157    1.116979    3.645623
     23          1           0       -3.346500    1.377631    3.620779
     24          1           0      -10.481727    0.798342   -0.118485
     25          1           0       -9.046720   -0.852739    1.042124
 ---------------------------------------------------------------------
                    Distance matrix (angstroms):
                    1          2          3          4          5
     1  C    0.000000
     2  C    1.387356   0.000000
     3  C    1.391068   2.403378   0.000000
     4  C    2.404466   2.772853   1.385096   0.000000
     5  C    2.788562   2.410396   2.413951   1.395983   0.000000
     6  C    2.408746   1.389638   2.779459   2.405928   1.391844
     7  H    2.150202   3.386108   1.081679   2.138284   3.391260
     8  H    3.387957   3.855611   2.145441   1.082829   2.144613
     9  H    3.388996   2.146182   3.863629   3.391255   2.150074
    10  C    4.272687   3.771514   3.772869   2.499003   1.484141
    11  C    5.125640   4.740315   4.475625   3.172281   2.502476
    12  C    5.127119   4.460639   4.760147   3.566095   2.505624
    13  H    5.233024   4.264173   5.203734   4.197357   2.897816
    14  C    6.446954   5.969163   5.800961   4.461517   3.734468
    15  H    4.942246   4.731301   4.230443   3.064551   2.716777
    16  C    6.488836   5.798910   6.057153   4.784993   3.787254
    17  H    4.926852   4.209545   4.726085   3.729884   2.702002
    18  C    7.085019   6.474414   6.525941   5.177913   4.297349
    19  H    8.166884   7.535594   7.596624   6.239962   5.379589
    20  H    7.233638   6.484266   6.873597   5.656656   4.649025
    21  O    5.893733   4.811409   6.012035   5.099476   3.794114
    22  O    6.351543   5.431532   6.356758   5.447223   4.339740
    23  H    7.118015   6.233550   7.003937   5.974260   4.885515
    24  H    1.081286   2.144283   2.148253   3.384775   3.869847
    25  H    2.147800   1.081969   3.387398   3.854767   3.385946
                    6          7          8          9         10
     6  C    0.000000
     7  H    3.861122   0.000000
     8  H    3.384238   2.466549   0.000000
     9  H    1.084256   4.945292   4.282393   0.000000
    10  C    2.495343   4.636022   2.696310   2.705785   0.000000
    11  C    3.538250   5.204311   3.063159   3.712714   1.403586
    12  C    3.148102   5.635335   3.743612   3.031762   1.398147
    13  H    2.953885   6.194357   4.641635   2.397820   2.158166
    14  C    4.678422   6.507193   4.232195   4.637724   2.367515
    15  H    3.731660   4.855533   2.917680   4.067333   2.163038
    16  C    4.447156   6.884119   4.773998   4.176994   2.427867
    17  H    3.038544   5.619675   4.063034   2.897093   2.140305
    18  C    5.109593   7.287680   5.002011   4.891196   2.814666
    19  H    6.162096   8.335831   6.005343   5.875909   3.897158
    20  H    5.168303   7.704197   5.668229   4.795407   3.403304
    21  O    3.608088   7.021139   5.591994   2.857367   3.153817
    22  O    4.336914   7.277440   5.824503   3.809860   3.712608
    23  H    5.052710   7.895877   6.215478   4.527111   4.000388
    24  H    3.388272   2.479805   4.282330   4.280455   5.353971
    25  H    2.138760   4.285534   4.937525   2.458986   4.632702
                   11         12         13         14         15
    11  C    0.000000
    12  C    2.414856   0.000000
    13  H    2.368213   2.415510   0.000000
    14  C    1.367709   2.711356   2.742939   0.000000
    15  H    1.084193   3.401547   2.965543   2.152696   0.000000
    16  C    2.796637   1.391545   2.836782   2.353420   3.880650
    17  H    3.388697   1.077846   3.044607   3.789186   4.289531
    18  C    2.436299   2.416034   3.004134   1.371073   3.415632
    19  H    3.412942   3.402910   3.859429   2.153227   4.303143
    20  H    3.878105   2.144954   3.628915   3.342669   4.962116
    21  O    3.229098   3.280966   0.995652   3.398373   3.719314
    22  O    3.253442   4.199820   1.893735   3.362760   3.403993
    23  H    3.356064   4.327275   2.305398   3.070632   3.621226
    24  H    6.181900   6.183029   6.238805   7.513743   5.934663
    25  H    5.604449   5.179285   4.741840   6.770722   5.617033
                   16         17         18         19         20
    16  C    0.000000
    17  H    2.143676   0.000000
    18  C    1.394128   3.391374   0.000000
    19  H    2.161891   4.293763   1.082561   0.000000
    20  H    1.081500   2.466627   2.148869   2.492559   0.000000
    21  O    3.490073   3.817439   3.559992   4.230873   4.128083
    22  O    4.298398   4.926908   3.914190   4.477934   5.072186
    23  H    4.116308   5.151947   3.499586   3.865519   4.832908
    24  H    7.553364   5.919363   8.166086   9.247838   8.271481
    25  H    6.474349   4.832425   7.203423   8.234520   7.076078
                   21         22         23         24         25
    21  O    0.000000
    22  O    1.421946   0.000000
    23  H    1.877240   0.960051   0.000000
    24  H    6.840693   7.270051   8.076456   0.000000
    25  H    5.108538   5.785633   6.642027   2.476354   0.000000
 Stoichiometry    C12H11O2(2)
 Framework group  C1[X(C12H11O2)]
 Deg. of freedom    69
 Full point group                 C1      NOp   1
 Largest Abelian subgroup         C1      NOp   1
 Largest concise Abelian subgroup C1      NOp   1
                         Standard orientation:                         
 ---------------------------------------------------------------------
 Center     Atomic      Atomic             Coordinates (Angstroms)
 Number     Number       Type             X           Y           Z
 ---------------------------------------------------------------------
      1          6           0       -3.834400    0.302210    0.026517
      2          6           0       -2.926650    1.089299    0.720230
      3          6           0       -3.387050   -0.812068   -0.675858
      4          6           0       -2.039192   -1.130983   -0.683864
      5          6           0       -1.122656   -0.347772    0.019919
      6          6           0       -1.575629    0.764001    0.724196
      7          1           0       -4.086836   -1.429686   -1.222555
      8          1           0       -1.688077   -2.003978   -1.219695
      9          1           0       -0.871386    1.390737    1.259784
     10          6           0        0.319041   -0.700168    0.021934
     11          6           0        1.058172   -0.648028   -1.170131
     12          6           0        0.976542   -1.012345    1.215690
     13          1           0        1.314930    1.194941    0.294782
     14          6           0        2.398226   -0.909915   -1.090774
     15          1           0        0.572415   -0.384406   -2.102879
     16          6           0        2.342567   -1.277049    1.233167
     17          1           0        0.407874   -1.058572    2.130147
     18          6           0        3.085019   -1.220405    0.054544
     19          1           0        4.150431   -1.412324    0.055414
     20          1           0        2.830903   -1.518777    2.167371
     21          8           0        1.774376    2.069233    0.420658
     22          8           0        2.073615    2.432835   -0.921050
     23          1           0        2.970309    2.106257   -1.025855
     24          1           0       -4.885424    0.556216    0.029595
     25          1           0       -3.263002    1.962375    1.263610
 ---------------------------------------------------------------------
 Rotational constants (GHZ):           1.1687785           0.4489547           0.3880295
 Standard basis: 6-311+G(2df,2p) (5D, 7F)
 There are   645 symmetry adapted cartesian basis functions of A   symmetry.
 There are   575 symmetry adapted basis functions of A   symmetry.
   575 basis functions,   849 primitive gaussians,   645 cartesian basis functions
    50 alpha electrons       49 beta electrons
       nuclear repulsion energy       813.1565805317 Hartrees.
 NAtoms=   25 NActive=   25 NUniq=   25 SFac= 1.00D+00 NAtFMM=   60 NAOKFM=F Big=F
 Integral buffers will be    131072 words long.
 Raffenetti 2 integral format.
 Two-electron integral symmetry is turned on.
 One-electron integrals computed using PRISM.
 NBasis=   575 RedAO= T EigKep=  1.59D-06  NBF=   575
 NBsUse=   574 1.00D-06 EigRej=  7.51D-07 NBFU=   574
 Initial guess from the checkpoint file:  "/scratch/dinius.ab/QMscratch/Gau-35909.chk"
 B after Tr=     0.000000   -0.000000    0.000000
         Rot=    1.000000    0.000311    0.000055    0.000079 Ang=   0.04 deg.
 Initial guess <Sx>= 0.0000 <Sy>= 0.0000 <Sz>= 0.5000 <S**2>= 0.7618 S= 0.5059
 Requested convergence on RMS density matrix=1.00D-08 within 128 cycles.
 Requested convergence on MAX density matrix=1.00D-06.
 Requested convergence on             energy=1.00D-06.
 No special actions if energy rises.
 SCF Done:  E(UM062X) =  -614.110717875     A.U. after   11 cycles
            NFock= 11  Conv=0.32D-08     -V/T= 2.0039
 <Sx>= 0.0000 <Sy>= 0.0000 <Sz>= 0.5000 <S**2>= 0.7618 S= 0.5059
 <L.S>= 0.000000000000E+00
 Annihilation of the first spin contaminant:
 S**2 before annihilation     0.7618,   after     0.7501
 Calling FoFJK, ICntrl=      2127 FMM=F ISym2X=0 I1Cent= 0 IOpClX= 1 NMat=1 NMatS=1 NMatT=0.
 ***** Axes restored to original set *****
 -------------------------------------------------------------------
 Center     Atomic                   Forces (Hartrees/Bohr)
 Number     Number              X              Y              Z
 -------------------------------------------------------------------
      1        6           0.000503251    0.000936563   -0.000274849
      2        6           0.000919359   -0.001236790   -0.000105557
      3        6          -0.001690853   -0.000436983    0.001126979
      4        6           0.001965696   -0.000357534    0.001078416
      5        6          -0.001153230    0.001998183   -0.003593985
      6        6          -0.001469524   -0.001096900    0.000117681
      7        1           0.000132526   -0.000799267    0.000139622
      8        1          -0.000301486   -0.000286382    0.000509428
      9        1          -0.000446186    0.000929500   -0.000932654
     10        6          -0.000028564   -0.001377628    0.001513841
     11        6          -0.002094677    0.002967084   -0.001440717
     12        6           0.003083751    0.003374294   -0.000071143
     13        1           0.007724190   -0.012686701    0.022852964
     14        6           0.001480739   -0.000983111   -0.001141558
     15        1           0.000799023   -0.001289440   -0.000135394
     16        6          -0.002327706   -0.000917938    0.000019729
     17        1          -0.001019899   -0.002033840   -0.000300426
     18        6           0.001287132    0.000975312    0.000676227
     19        1          -0.000747315   -0.000001475   -0.000108514
     20        1          -0.000046119    0.000089894    0.000066706
     21        8          -0.005584155    0.013706076   -0.017693853
     22        8          -0.004942238   -0.003175702   -0.001682552
     23        1           0.004061427    0.000621875   -0.000309358
     24        1           0.000054427    0.000102593    0.000044238
     25        1          -0.000159567    0.000978317   -0.000355269
 -------------------------------------------------------------------
 Cartesian Forces:  Max     0.022852964 RMS     0.004367258

 GradGradGradGradGradGradGradGradGradGradGradGradGradGradGradGradGradGrad
 Berny optimization.
 Using GEDIIS/GDIIS optimizer.
 Bend failed for angle    10 -    13 -    21
 Tors failed for dihedral     5 -    10 -    13 -    21
 Tors failed for dihedral    11 -    10 -    13 -    21
 Tors failed for dihedral    12 -    10 -    13 -    21
 Tors failed for dihedral    10 -    13 -    21 -    22
 FormBX had a problem.
 Error termination via Lnk1e in /shared/centos7/gaussian/g16/l103.exe at Sat Jan 19 00:01:00 2019.
 Job cpu time:       0 days 14 hours 36 minutes 29.8 seconds.
 Elapsed time:       0 days 14 hours 36 minutes 56.0 seconds.
 File lengths (MBytes):  RWF=    592 Int=      0 D2E=      0 Chk=     48 Scr=     32
