 Entering Gaussian System, Link 0=/shared/apps/gaussian/G09_LINUX_LINDA/g09/g09
 Input=/gss_gpfs_scratch/r.west/QMscratch/CC+[O]O_C[CH2]+OO.gjf
 Output=/gss_gpfs_scratch/r.west/QMscratch/CC+[O]O_C[CH2]+OO.log
 Initial command:
 /shared/apps/gaussian/G09_LINUX_LINDA/g09/l1.exe /home/r.west/Code/RMG-Py/scripts/Gau-33591.inp -scrdir=/home/r.west/Code/RMG-Py/scripts/
 Entering Link 1 = /shared/apps/gaussian/G09_LINUX_LINDA/g09/l1.exe PID=     33592.
  
 Copyright (c) 1988,1990,1992,1993,1995,1998,2003,2009,2010,
            Gaussian, Inc.  All Rights Reserved.
  
 This is part of the Gaussian(R) 09 program.  It is based on
 the Gaussian(R) 03 system (copyright 2003, Gaussian, Inc.),
 the Gaussian(R) 98 system (copyright 1998, Gaussian, Inc.),
 the Gaussian(R) 94 system (copyright 1995, Gaussian, Inc.),
 the Gaussian 92(TM) system (copyright 1992, Gaussian, Inc.),
 the Gaussian 90(TM) system (copyright 1990, Gaussian, Inc.),
 the Gaussian 88(TM) system (copyright 1988, Gaussian, Inc.),
 the Gaussian 86(TM) system (copyright 1986, Carnegie Mellon
 University), and the Gaussian 82(TM) system (copyright 1983,
 Carnegie Mellon University). Gaussian is a federally registered
 trademark of Gaussian, Inc.
  
 This software contains proprietary and confidential information,
 including trade secrets, belonging to Gaussian, Inc.
  
 This software is provided under written license and may be
 used, copied, transmitted, or stored only in accord with that
 written license.
  
 The following legend is applicable only to US Government
 contracts under FAR:
  
                    RESTRICTED RIGHTS LEGEND
  
 Use, reproduction and disclosure by the US Government is
 subject to restrictions as set forth in subparagraphs (a)
 and (c) of the Commercial Computer Software - Restricted
 Rights clause in FAR 52.227-19.
  
 Gaussian, Inc.
 340 Quinnipiac St., Bldg. 40, Wallingford CT 06492
  
  
 ---------------------------------------------------------------
 Warning -- This program may not be used in any manner that
 competes with the business of Gaussian, Inc. or will provide
 assistance to any competitor of Gaussian, Inc.  The licensee
 of this program is prohibited from giving any competitor of
 Gaussian, Inc. access to this program.  By using this program,
 the user acknowledges that Gaussian, Inc. is engaged in the
 business of creating and licensing software in the field of
 computational chemistry and represents and warrants to the
 licensee that it is not a competitor of Gaussian, Inc. and that
 it will not use this program in any manner prohibited above.
 ---------------------------------------------------------------
  

 Cite this work as:
 Gaussian 09, Revision B.01,
 M. J. Frisch, G. W. Trucks, H. B. Schlegel, G. E. Scuseria, 
 M. A. Robb, J. R. Cheeseman, G. Scalmani, V. Barone, B. Mennucci, 
 G. A. Petersson, H. Nakatsuji, M. Caricato, X. Li, H. P. Hratchian, 
 A. F. Izmaylov, J. Bloino, G. Zheng, J. L. Sonnenberg, M. Hada, 
 M. Ehara, K. Toyota, R. Fukuda, J. Hasegawa, M. Ishida, T. Nakajima, 
 Y. Honda, O. Kitao, H. Nakai, T. Vreven, J. A. Montgomery, Jr., 
 J. E. Peralta, F. Ogliaro, M. Bearpark, J. J. Heyd, E. Brothers, 
 K. N. Kudin, V. N. Staroverov, T. Keith, R. Kobayashi, J. Normand, 
 K. Raghavachari, A. Rendell, J. C. Burant, S. S. Iyengar, J. Tomasi, 
 M. Cossi, N. Rega, J. M. Millam, M. Klene, J. E. Knox, J. B. Cross, 
 V. Bakken, C. Adamo, J. Jaramillo, R. Gomperts, R. E. Stratmann, 
 O. Yazyev, A. J. Austin, R. Cammi, C. Pomelli, J. W. Ochterski, 
 R. L. Martin, K. Morokuma, V. G. Zakrzewski, G. A. Voth, 
 P. Salvador, J. J. Dannenberg, S. Dapprich, A. D. Daniels, 
 O. Farkas, J. B. Foresman, J. V. Ortiz, J. Cioslowski, 
 and D. J. Fox, Gaussian, Inc., Wallingford CT, 2010.
 
 ******************************************
 Gaussian 09:  EM64L-G09RevB.01 12-Aug-2010
                20-Sep-2016 
 ******************************************
 %nprocshared=20
 Will use up to   20 processors via shared memory.
 %mem=5GB
 %chk=/gss_gpfs_scratch/r.west/QMscratch/CC+[O]O_C[CH2]+OO
 --------------------------------------------------------
 # m062x/6-311+g(2df,2p) opt=(ts,calcfc,noeigentest) freq
 --------------------------------------------------------
 1/5=1,10=4,11=1,14=-1,18=20,26=3,38=1/1,3;
 2/9=110,12=2,17=6,18=5,40=1/2;
 3/5=4,6=6,7=214,11=2,16=1,25=1,30=1,71=2,74=-55/1,2,3;
 4//1;
 5/5=2,38=5/2;
 8/6=4,10=90,11=11/1;
 11/6=1,8=1,9=11,15=111,16=1/1,2,10;
 10/6=1,7=6,13=1/2;
 6/7=2,8=2,9=2,10=2,28=1/1;
 7/10=1,18=20,25=1/1,2,3,16;
 1/5=1,10=4,11=1,14=-1,18=20/3(2);
 2/9=110/2;
 99//99;
 2/9=110/2;
 3/5=4,6=6,7=214,11=2,16=1,25=1,30=1,71=1,74=-55/1,2,3;
 4/5=5,16=3/1;
 5/5=2,38=5/2;
 7//1,2,3,16;
 1/5=1,11=1,14=-1,18=20/3(-5);
 2/9=110/2;
 6/7=2,8=2,9=2,10=2,19=2,28=1/1;
 99/9=1/99;
 -----------------
 CC+[O]O_C[CH2]+OO
 -----------------
 Symbolic Z-matrix:
 Charge =  0 Multiplicity = 2
 C                     1.19649   0.7512   -0.12859 
 C                     1.56849  -0.68531   0.08912 
 H                    -0.12939   0.79853   0.03953 
 H                     1.29744   1.12027  -1.14519 
 H                     1.54959   1.45848   0.61669 
 H                     1.36367  -0.99896   1.11286 
 H                     1.02208  -1.33948  -0.58978 
 H                     2.63637  -0.84164  -0.09207 
 O                    -1.55578  -0.61185  -0.23255 
 O                    -1.28822   0.67753   0.19586 
 H                    -1.57766  -1.11794   0.58831 
 

 GradGradGradGradGradGradGradGradGradGradGradGradGradGradGradGradGradGrad
 Berny optimization.
 Initialization pass.
                           ----------------------------
                           !    Initial Parameters    !
                           ! (Angstroms and Degrees)  !
 --------------------------                            --------------------------
 ! Name  Definition              Value          Derivative Info.                !
 --------------------------------------------------------------------------------
 ! R1    R(1,2)                  1.4998         calculate D2E/DX2 analytically  !
 ! R2    R(1,3)                  1.3373         calculate D2E/DX2 analytically  !
 ! R3    R(1,4)                  1.0862         calculate D2E/DX2 analytically  !
 ! R4    R(1,5)                  1.0865         calculate D2E/DX2 analytically  !
 ! R5    R(2,6)                  1.0901         calculate D2E/DX2 analytically  !
 ! R6    R(2,7)                  1.0897         calculate D2E/DX2 analytically  !
 ! R7    R(2,8)                  1.0944         calculate D2E/DX2 analytically  !
 ! R8    R(3,10)                 1.1756         calculate D2E/DX2 analytically  !
 ! R9    R(9,10)                 1.3848         calculate D2E/DX2 analytically  !
 ! R10   R(9,11)                 0.9646         calculate D2E/DX2 analytically  !
 ! A1    A(2,1,3)              105.163          calculate D2E/DX2 analytically  !
 ! A2    A(2,1,4)              115.9921         calculate D2E/DX2 analytically  !
 ! A3    A(2,1,5)              116.3182         calculate D2E/DX2 analytically  !
 ! A4    A(3,1,4)              101.406          calculate D2E/DX2 analytically  !
 ! A5    A(3,1,5)              102.2946         calculate D2E/DX2 analytically  !
 ! A6    A(4,1,5)              112.9926         calculate D2E/DX2 analytically  !
 ! A7    A(1,2,6)              111.4257         calculate D2E/DX2 analytically  !
 ! A8    A(1,2,7)              111.112          calculate D2E/DX2 analytically  !
 ! A9    A(1,2,8)              110.7826         calculate D2E/DX2 analytically  !
 ! A10   A(6,2,7)              108.5508         calculate D2E/DX2 analytically  !
 ! A11   A(6,2,8)              107.3208         calculate D2E/DX2 analytically  !
 ! A12   A(7,2,8)              107.4817         calculate D2E/DX2 analytically  !
 ! A13   A(1,3,10)             172.0502         calculate D2E/DX2 analytically  !
 ! A14   A(10,9,11)            103.2756         calculate D2E/DX2 analytically  !
 ! A15   A(3,10,9)             104.1919         calculate D2E/DX2 analytically  !
 ! D1    D(3,1,2,6)            -64.2956         calculate D2E/DX2 analytically  !
 ! D2    D(3,1,2,7)             56.8938         calculate D2E/DX2 analytically  !
 ! D3    D(3,1,2,8)            176.2975         calculate D2E/DX2 analytically  !
 ! D4    D(4,1,2,6)           -175.4005         calculate D2E/DX2 analytically  !
 ! D5    D(4,1,2,7)            -54.2112         calculate D2E/DX2 analytically  !
 ! D6    D(4,1,2,8)             65.1926         calculate D2E/DX2 analytically  !
 ! D7    D(5,1,2,6)             48.049          calculate D2E/DX2 analytically  !
 ! D8    D(5,1,2,7)            169.2383         calculate D2E/DX2 analytically  !
 ! D9    D(5,1,2,8)            -71.3579         calculate D2E/DX2 analytically  !
 ! D10   D(2,1,3,10)            -7.1718         calculate D2E/DX2 analytically  !
 ! D11   D(4,1,3,10)           114.018          calculate D2E/DX2 analytically  !
 ! D12   D(5,1,3,10)          -129.1226         calculate D2E/DX2 analytically  !
 ! D13   D(1,3,10,9)           -23.3552         calculate D2E/DX2 analytically  !
 ! D14   D(11,9,10,3)           98.1173         calculate D2E/DX2 analytically  !
 --------------------------------------------------------------------------------
 Trust Radius=3.00D-01 FncErr=1.00D-07 GrdErr=1.00D-06
 Number of steps in this run=     49 maximum allowed number of steps=    100.
 Search for a saddle point of order  1.
 GradGradGradGradGradGradGradGradGradGradGradGradGradGradGradGradGradGrad

                          Input orientation:                          
 ---------------------------------------------------------------------
 Center     Atomic      Atomic             Coordinates (Angstroms)
 Number     Number       Type             X           Y           Z
 ---------------------------------------------------------------------
      1          6           0        1.196493    0.751197   -0.128590
      2          6           0        1.568492   -0.685310    0.089117
      3          1           0       -0.129385    0.798533    0.039526
      4          1           0        1.297435    1.120269   -1.145193
      5          1           0        1.549588    1.458484    0.616691
      6          1           0        1.363670   -0.998956    1.112863
      7          1           0        1.022082   -1.339477   -0.589776
      8          1           0        2.636372   -0.841639   -0.092068
      9          8           0       -1.555784   -0.611850   -0.232547
     10          8           0       -1.288218    0.677525    0.195858
     11          1           0       -1.577660   -1.117940    0.588314
 ---------------------------------------------------------------------
                    Distance matrix (angstroms):
                    1          2          3          4          5
     1  C    0.000000
     2  C    1.499777   0.000000
     3  H    1.337332   2.255446   0.000000
     4  H    1.086225   2.203885   1.882256   0.000000
     5  H    1.086451   2.207837   1.894097   1.811686   0.000000
     6  H    2.152252   1.090129   2.571426   3.097470   2.513914
     7  H    2.148029   1.089676   2.508582   2.536663   3.092315
     8  H    2.147490   1.094365   3.218213   2.598251   2.640834
     9  O    3.073066   3.141650   2.024307   3.460349   3.827639
    10  O    2.506887   3.166939   1.175575   2.946191   2.973237
    11  H    3.421045   3.214753   2.464049   4.034947   4.051968
                    6          7          8          9         10
     6  H    0.000000
     7  H    1.769637   0.000000
     8  H    1.759653   1.761104   0.000000
     9  O    3.237776   2.702304   4.200799   0.000000
    10  O    3.268638   3.165913   4.218195   1.384778   0.000000
    11  H    2.990106   2.862802   4.277538   0.964582   1.860509
                   11
    11  H    0.000000
 Stoichiometry    C2H7O2(2)
 Framework group  C1[X(C2H7O2)]
 Deg. of freedom    27
 Full point group                 C1      NOp   1
 Largest Abelian subgroup         C1      NOp   1
 Largest concise Abelian subgroup C1      NOp   1
                         Standard orientation:                         
 ---------------------------------------------------------------------
 Center     Atomic      Atomic             Coordinates (Angstroms)
 Number     Number       Type             X           Y           Z
 ---------------------------------------------------------------------
      1          6           0        1.196493    0.751197   -0.128590
      2          6           0        1.568492   -0.685310    0.089117
      3          1           0       -0.129385    0.798533    0.039526
      4          1           0        1.297435    1.120269   -1.145193
      5          1           0        1.549588    1.458484    0.616691
      6          1           0        1.363670   -0.998956    1.112863
      7          1           0        1.022082   -1.339477   -0.589776
      8          1           0        2.636372   -0.841639   -0.092068
      9          8           0       -1.555784   -0.611850   -0.232547
     10          8           0       -1.288218    0.677525    0.195858
     11          1           0       -1.577660   -1.117940    0.588314
 ---------------------------------------------------------------------
 Rotational constants (GHZ):     12.6382528      3.7906799      3.1087879
 Standard basis: 6-311+G(2df,2p) (5D, 7F)
 There are   199 symmetry adapted basis functions of A   symmetry.
 Integral buffers will be    131072 words long.
 Raffenetti 2 integral format.
 Two-electron integral symmetry is turned on.
   199 basis functions,   285 primitive gaussians,   219 cartesian basis functions
    18 alpha electrons       17 beta electrons
       nuclear repulsion energy       128.7696588413 Hartrees.
 NAtoms=   11 NActive=   11 NUniq=   11 SFac= 1.00D+00 NAtFMM=   50 NAOKFM=F Big=F
 One-electron integrals computed using PRISM.
 NBasis=   199 RedAO= T  NBF=   199
 NBsUse=   199 1.00D-06 NBFU=   199
 Harris functional with IExCor= 1009 diagonalized for initial guess.
 ExpMin= 4.38D-02 ExpMax= 8.59D+03 ExpMxC= 1.30D+03 IAcc=2 IRadAn=         0 AccDes= 0.00D+00
 HarFok:  IExCor= 1009 AccDes= 0.00D+00 IRadAn=         0 IDoV= 1
 ScaDFX=  1.000000  1.000000  1.000000  1.000000
 FoFCou: FMM=F IPFlag=           0 FMFlag=      100000 FMFlg1=           0
         NFxFlg=           0 DoJE=T BraDBF=F KetDBF=T FulRan=T
         Omega=  0.000000  0.000000  1.000000  0.000000  0.000000 ICntrl=     500 IOpCl=  0
         NMat0=    1 NMatS0=    1 NMatT0=    0 NMatD0=    1 NMtDS0=    0 NMtDT0=    0
         I1Cent=           4 NGrid=           0.
 Petite list used in FoFCou.
 Initial guess orbital symmetries:
 Alpha Orbitals:
       Occupied  (A) (A) (A) (A) (A) (A) (A) (A) (A) (A) (A) (A)
                 (A) (A) (A) (A) (A) (A)
       Virtual   (A) (A) (A) (A) (A) (A) (A) (A) (A) (A) (A) (A)
                 (A) (A) (A) (A) (A) (A) (A) (A) (A) (A) (A) (A)
                 (A) (A) (A) (A) (A) (A) (A) (A) (A) (A) (A) (A)
                 (A) (A) (A) (A) (A) (A) (A) (A) (A) (A) (A) (A)
                 (A) (A) (A) (A) (A) (A) (A) (A) (A) (A) (A) (A)
                 (A) (A) (A) (A) (A) (A) (A) (A) (A) (A) (A) (A)
                 (A) (A) (A) (A) (A) (A) (A) (A) (A) (A) (A) (A)
                 (A) (A) (A) (A) (A) (A) (A) (A) (A) (A) (A) (A)
                 (A) (A) (A) (A) (A) (A) (A) (A) (A) (A) (A) (A)
                 (A) (A) (A) (A) (A) (A) (A) (A) (A) (A) (A) (A)
                 (A) (A) (A) (A) (A) (A) (A) (A) (A) (A) (A) (A)
                 (A) (A) (A) (A) (A) (A) (A) (A) (A) (A) (A) (A)
                 (A) (A) (A) (A) (A) (A) (A) (A) (A) (A) (A) (A)
                 (A) (A) (A) (A) (A) (A) (A) (A) (A) (A) (A) (A)
                 (A) (A) (A) (A) (A) (A) (A) (A) (A) (A) (A) (A)
                 (A)
 Beta  Orbitals:
       Occupied  (A) (A) (A) (A) (A) (A) (A) (A) (A) (A) (A) (A)
                 (A) (A) (A) (A) (A)
       Virtual   (A) (A) (A) (A) (A) (A) (A) (A) (A) (A) (A) (A)
                 (A) (A) (A) (A) (A) (A) (A) (A) (A) (A) (A) (A)
                 (A) (A) (A) (A) (A) (A) (A) (A) (A) (A) (A) (A)
                 (A) (A) (A) (A) (A) (A) (A) (A) (A) (A) (A) (A)
                 (A) (A) (A) (A) (A) (A) (A) (A) (A) (A) (A) (A)
                 (A) (A) (A) (A) (A) (A) (A) (A) (A) (A) (A) (A)
                 (A) (A) (A) (A) (A) (A) (A) (A) (A) (A) (A) (A)
                 (A) (A) (A) (A) (A) (A) (A) (A) (A) (A) (A) (A)
                 (A) (A) (A) (A) (A) (A) (A) (A) (A) (A) (A) (A)
                 (A) (A) (A) (A) (A) (A) (A) (A) (A) (A) (A) (A)
                 (A) (A) (A) (A) (A) (A) (A) (A) (A) (A) (A) (A)
                 (A) (A) (A) (A) (A) (A) (A) (A) (A) (A) (A) (A)
                 (A) (A) (A) (A) (A) (A) (A) (A) (A) (A) (A) (A)
                 (A) (A) (A) (A) (A) (A) (A) (A) (A) (A) (A) (A)
                 (A) (A) (A) (A) (A) (A) (A) (A) (A) (A) (A) (A)
                 (A) (A)
 The electronic state of the initial guess is 2-A.
 Initial guess <Sx>= 0.0000 <Sy>= 0.0000 <Sz>= 0.5000 <S**2>= 0.7500 S= 0.5000
 Requested convergence on RMS density matrix=1.00D-08 within 128 cycles.
 Requested convergence on MAX density matrix=1.00D-06.
 Requested convergence on             energy=1.00D-06.
 No special actions if energy rises.
 Keep R1 and R2 ints in memory in canonical form, NReq=585939035.
 SCF Done:  E(UM062X) =  -230.668752543     A.U. after   16 cycles
             Convg  =    0.4263D-08             -V/T =  2.0033
 <Sx>= 0.0000 <Sy>= 0.0000 <Sz>= 0.5000 <S**2>= 0.7599 S= 0.5050
 <L.S>= 0.000000000000E+00
 Annihilation of the first spin contaminant:
 S**2 before annihilation     0.7599,   after     0.7500
 Range of M.O.s used for correlation:     1   199
 NBasis=   199 NAE=    18 NBE=    17 NFC=     0 NFV=     0
 NROrb=    199 NOA=    18 NOB=    17 NVA=   181 NVB=   182

 **** Warning!!: The largest alpha MO coefficient is  0.41032910D+02


 **** Warning!!: The largest beta MO coefficient is  0.40564299D+02

 Symmetrizing basis deriv contribution to polar:
 IMax=3 JMax=2 DiffMx= 0.00D+00
 G2DrvN: will do    12 centers at a time, making    1 passes doing MaxLOS=3.
 Calling FoFCou, ICntrl=  3107 FMM=F I1Cent=   0 AccDes= 0.00D+00.
 FoFDir/FoFCou used for L=0 through L=3.
 End of G2Drv Frequency-dependent properties file   721 does not exist.
 End of G2Drv Frequency-dependent properties file   722 does not exist.
          IDoAtm=11111111111
          Differentiating once with respect to nuclear coordinates.
          Keep R1 and R2 ints in memory in canonical form, NReq=582296210.
          There are    36 degrees of freedom in the 1st order CPHF.  IDoFFX=5.
     30 vectors produced by pass  0 Test12= 1.76D-10 2.78D-07 XBig12= 2.49D-01 2.65D-01.
 AX will form    30 AO Fock derivatives at one time.
     30 vectors produced by pass  1 Test12= 1.76D-10 2.78D-07 XBig12= 2.87D-02 4.85D-02.
     30 vectors produced by pass  2 Test12= 1.76D-10 2.78D-07 XBig12= 1.22D-03 4.86D-03.
     30 vectors produced by pass  3 Test12= 1.76D-10 2.78D-07 XBig12= 8.87D-06 5.78D-04.
     30 vectors produced by pass  4 Test12= 1.76D-10 2.78D-07 XBig12= 1.57D-07 6.42D-05.
     19 vectors produced by pass  5 Test12= 1.76D-10 2.78D-07 XBig12= 1.68D-09 4.90D-06.
      2 vectors produced by pass  6 Test12= 1.76D-10 2.78D-07 XBig12= 1.84D-11 5.11D-07.
 Inverted reduced A of dimension   171 with in-core refinement.
 End of Minotr Frequency-dependent properties file   721 does not exist.
 End of Minotr Frequency-dependent properties file   722 does not exist.

 **********************************************************************

            Population analysis using the SCF density.

 **********************************************************************

 Orbital symmetries:
 Alpha Orbitals:
       Occupied  (A) (A) (A) (A) (A) (A) (A) (A) (A) (A) (A) (A)
                 (A) (A) (A) (A) (A) (A)
       Virtual   (A) (A) (A) (A) (A) (A) (A) (A) (A) (A) (A) (A)
                 (A) (A) (A) (A) (A) (A) (A) (A) (A) (A) (A) (A)
                 (A) (A) (A) (A) (A) (A) (A) (A) (A) (A) (A) (A)
                 (A) (A) (A) (A) (A) (A) (A) (A) (A) (A) (A) (A)
                 (A) (A) (A) (A) (A) (A) (A) (A) (A) (A) (A) (A)
                 (A) (A) (A) (A) (A) (A) (A) (A) (A) (A) (A) (A)
                 (A) (A) (A) (A) (A) (A) (A) (A) (A) (A) (A) (A)
                 (A) (A) (A) (A) (A) (A) (A) (A) (A) (A) (A) (A)
                 (A) (A) (A) (A) (A) (A) (A) (A) (A) (A) (A) (A)
                 (A) (A) (A) (A) (A) (A) (A) (A) (A) (A) (A) (A)
                 (A) (A) (A) (A) (A) (A) (A) (A) (A) (A) (A) (A)
                 (A) (A) (A) (A) (A) (A) (A) (A) (A) (A) (A) (A)
                 (A) (A) (A) (A) (A) (A) (A) (A) (A) (A) (A) (A)
                 (A) (A) (A) (A) (A) (A) (A) (A) (A) (A) (A) (A)
                 (A) (A) (A) (A) (A) (A) (A) (A) (A) (A) (A) (A)
                 (A)
 Beta  Orbitals:
       Occupied  (A) (A) (A) (A) (A) (A) (A) (A) (A) (A) (A) (A)
                 (A) (A) (A) (A) (A)
       Virtual   (A) (A) (A) (A) (A) (A) (A) (A) (A) (A) (A) (A)
                 (A) (A) (A) (A) (A) (A) (A) (A) (A) (A) (A) (A)
                 (A) (A) (A) (A) (A) (A) (A) (A) (A) (A) (A) (A)
                 (A) (A) (A) (A) (A) (A) (A) (A) (A) (A) (A) (A)
                 (A) (A) (A) (A) (A) (A) (A) (A) (A) (A) (A) (A)
                 (A) (A) (A) (A) (A) (A) (A) (A) (A) (A) (A) (A)
                 (A) (A) (A) (A) (A) (A) (A) (A) (A) (A) (A) (A)
                 (A) (A) (A) (A) (A) (A) (A) (A) (A) (A) (A) (A)
                 (A) (A) (A) (A) (A) (A) (A) (A) (A) (A) (A) (A)
                 (A) (A) (A) (A) (A) (A) (A) (A) (A) (A) (A) (A)
                 (A) (A) (A) (A) (A) (A) (A) (A) (A) (A) (A) (A)
                 (A) (A) (A) (A) (A) (A) (A) (A) (A) (A) (A) (A)
                 (A) (A) (A) (A) (A) (A) (A) (A) (A) (A) (A) (A)
                 (A) (A) (A) (A) (A) (A) (A) (A) (A) (A) (A) (A)
                 (A) (A) (A) (A) (A) (A) (A) (A) (A) (A) (A) (A)
                 (A) (A)
 The electronic state is 2-A.
 Alpha  occ. eigenvalues --  -19.69249 -19.68740 -10.55452 -10.53956  -1.27406
 Alpha  occ. eigenvalues --   -0.99198  -0.87370  -0.71983  -0.62617  -0.59119
 Alpha  occ. eigenvalues --   -0.53393  -0.52777  -0.49128  -0.45981  -0.43130
 Alpha  occ. eigenvalues --   -0.40619  -0.37823  -0.29808
 Alpha virt. eigenvalues --    0.01374   0.02976   0.04131   0.04737   0.07393
 Alpha virt. eigenvalues --    0.08154   0.08202   0.11190   0.12497   0.13506
 Alpha virt. eigenvalues --    0.16138   0.18760   0.19450   0.20449   0.20828
 Alpha virt. eigenvalues --    0.21957   0.23322   0.24615   0.25322   0.26946
 Alpha virt. eigenvalues --    0.27815   0.30860   0.32618   0.35424   0.36152
 Alpha virt. eigenvalues --    0.40320   0.44031   0.45521   0.46709   0.49685
 Alpha virt. eigenvalues --    0.53552   0.53946   0.56063   0.57592   0.58546
 Alpha virt. eigenvalues --    0.59431   0.60763   0.63190   0.64635   0.69095
 Alpha virt. eigenvalues --    0.70262   0.76243   0.78132   0.80237   0.83370
 Alpha virt. eigenvalues --    0.87336   0.88906   0.90791   0.94336   0.97664
 Alpha virt. eigenvalues --    1.01492   1.04867   1.08306   1.10171   1.12278
 Alpha virt. eigenvalues --    1.14334   1.16959   1.17113   1.18200   1.19343
 Alpha virt. eigenvalues --    1.20777   1.22175   1.24251   1.25177   1.33167
 Alpha virt. eigenvalues --    1.36396   1.37342   1.38135   1.41033   1.43199
 Alpha virt. eigenvalues --    1.43921   1.46203   1.51467   1.54559   1.56636
 Alpha virt. eigenvalues --    1.58479   1.59839   1.60470   1.63060   1.70547
 Alpha virt. eigenvalues --    1.81023   1.87043   1.97884   1.98812   2.21502
 Alpha virt. eigenvalues --    2.24021   2.27635   2.36406   2.41966   2.45615
 Alpha virt. eigenvalues --    2.49967   2.52980   2.57906   2.63805   2.67312
 Alpha virt. eigenvalues --    2.76820   2.81163   2.82144   2.83714   2.95564
 Alpha virt. eigenvalues --    3.02920   3.05578   3.07271   3.09292   3.13915
 Alpha virt. eigenvalues --    3.16962   3.20117   3.29490   3.30997   3.36733
 Alpha virt. eigenvalues --    3.45693   3.46559   3.47469   3.51609   3.53704
 Alpha virt. eigenvalues --    3.54404   3.63648   3.71088   3.76972   3.77976
 Alpha virt. eigenvalues --    3.79342   3.87127   3.88540   3.89702   3.93241
 Alpha virt. eigenvalues --    3.98827   4.03619   4.05375   4.10543   4.12613
 Alpha virt. eigenvalues --    4.17160   4.20493   4.23790   4.24596   4.33822
 Alpha virt. eigenvalues --    4.40044   4.43764   4.49744   4.52302   4.54256
 Alpha virt. eigenvalues --    4.60613   4.62123   4.64688   4.69237   4.71112
 Alpha virt. eigenvalues --    4.76037   4.91009   5.10351   5.12193   5.14116
 Alpha virt. eigenvalues --    5.17207   5.19062   5.23056   5.32335   5.37109
 Alpha virt. eigenvalues --    5.40741   5.42158   5.49938   5.54602   5.60933
 Alpha virt. eigenvalues --    5.62555   5.63817   6.09296   6.11326   6.38602
 Alpha virt. eigenvalues --    6.82385   6.84338   6.89221   6.90605   6.97566
 Alpha virt. eigenvalues --    7.10694   7.26200   7.28055   7.47036   7.49898
 Alpha virt. eigenvalues --    7.79523   7.91110  24.22615  24.44361  49.98869
 Alpha virt. eigenvalues --   50.02659
  Beta  occ. eigenvalues --  -19.69067 -19.67795 -10.54961 -10.53978  -1.25700
  Beta  occ. eigenvalues --   -0.96697  -0.86074  -0.70384  -0.61205  -0.55675
  Beta  occ. eigenvalues --   -0.52608  -0.51193  -0.46911  -0.45181  -0.42662
  Beta  occ. eigenvalues --   -0.36954  -0.35784
  Beta virt. eigenvalues --   -0.08159   0.01441   0.02988   0.04266   0.04836
  Beta virt. eigenvalues --    0.07512   0.08280   0.08301   0.11450   0.12703
  Beta virt. eigenvalues --    0.13558   0.16266   0.18903   0.19776   0.20574
  Beta virt. eigenvalues --    0.21012   0.22300   0.23582   0.24832   0.25666
  Beta virt. eigenvalues --    0.27583   0.28026   0.31042   0.33683   0.35626
  Beta virt. eigenvalues --    0.37514   0.40406   0.44144   0.45938   0.47525
  Beta virt. eigenvalues --    0.49859   0.54067   0.54114   0.57117   0.58206
  Beta virt. eigenvalues --    0.59440   0.59756   0.61115   0.63702   0.65272
  Beta virt. eigenvalues --    0.69259   0.70198   0.76156   0.78239   0.80308
  Beta virt. eigenvalues --    0.83526   0.87389   0.89148   0.91079   0.94439
  Beta virt. eigenvalues --    0.98596   1.01847   1.05394   1.08375   1.10903
  Beta virt. eigenvalues --    1.12706   1.14632   1.17242   1.17411   1.18423
  Beta virt. eigenvalues --    1.19321   1.20792   1.22604   1.24653   1.25907
  Beta virt. eigenvalues --    1.34269   1.36930   1.37780   1.38322   1.41208
  Beta virt. eigenvalues --    1.43292   1.44512   1.46467   1.51979   1.55386
  Beta virt. eigenvalues --    1.56921   1.59187   1.60393   1.60757   1.63216
  Beta virt. eigenvalues --    1.71105   1.81254   1.89273   1.98727   1.99517
  Beta virt. eigenvalues --    2.21603   2.24755   2.27581   2.37264   2.42386
  Beta virt. eigenvalues --    2.46679   2.49845   2.53351   2.58518   2.64573
  Beta virt. eigenvalues --    2.67033   2.77137   2.82839   2.83172   2.85402
  Beta virt. eigenvalues --    2.96398   3.04440   3.07288   3.08650   3.10143
  Beta virt. eigenvalues --    3.15025   3.18175   3.21597   3.30595   3.32901
  Beta virt. eigenvalues --    3.38529   3.47369   3.49756   3.51296   3.53994
  Beta virt. eigenvalues --    3.55798   3.56410   3.66305   3.71256   3.77381
  Beta virt. eigenvalues --    3.79145   3.80563   3.88879   3.89291   3.90420
  Beta virt. eigenvalues --    3.94442   4.00073   4.04369   4.06738   4.11836
  Beta virt. eigenvalues --    4.14083   4.17833   4.21583   4.24650   4.25114
  Beta virt. eigenvalues --    4.35539   4.40425   4.44834   4.50887   4.52970
  Beta virt. eigenvalues --    4.56052   4.60723   4.63521   4.65224   4.71063
  Beta virt. eigenvalues --    4.72544   4.76449   4.91266   5.11435   5.13280
  Beta virt. eigenvalues --    5.15016   5.17699   5.19338   5.23746   5.33238
  Beta virt. eigenvalues --    5.37804   5.41928   5.44775   5.52425   5.55104
  Beta virt. eigenvalues --    5.60806   5.63096   5.64140   6.10036   6.11786
  Beta virt. eigenvalues --    6.39480   6.83116   6.85926   6.89501   6.92201
  Beta virt. eigenvalues --    7.01133   7.11011   7.27144   7.30220   7.47034
  Beta virt. eigenvalues --    7.51732   7.81825   7.91315  24.23324  24.44827
  Beta virt. eigenvalues --   49.98557  50.02226
          Condensed to atoms (all electrons):
              1          2          3          4          5          6
     1  C    5.419677   0.065096   0.314245   0.387960   0.397293  -0.051664
     2  C    0.065096   5.234173  -0.076099  -0.014326  -0.020579   0.421683
     3  H    0.314245  -0.076099   0.456372  -0.023770  -0.022978  -0.000639
     4  H    0.387960  -0.014326  -0.023770   0.523835  -0.026607   0.005485
     5  H    0.397293  -0.020579  -0.022978  -0.026607   0.526875  -0.006135
     6  H   -0.051664   0.421683  -0.000639   0.005485  -0.006135   0.539491
     7  H   -0.030904   0.404161  -0.001375  -0.005951   0.005503  -0.035839
     8  H   -0.015288   0.386393   0.004428  -0.004408  -0.004553  -0.021588
     9  O   -0.011613   0.036469  -0.038292   0.000532   0.001912  -0.006183
    10  O   -0.030818  -0.004044   0.021784   0.004922   0.001897   0.003361
    11  H   -0.012410   0.010619   0.006177  -0.000139   0.000077   0.000170
              7          8          9         10         11
     1  C   -0.030904  -0.015288  -0.011613  -0.030818  -0.012410
     2  C    0.404161   0.386393   0.036469  -0.004044   0.010619
     3  H   -0.001375   0.004428  -0.038292   0.021784   0.006177
     4  H   -0.005951  -0.004408   0.000532   0.004922  -0.000139
     5  H    0.005503  -0.004553   0.001912   0.001897   0.000077
     6  H   -0.035839  -0.021588  -0.006183   0.003361   0.000170
     7  H    0.530866  -0.025858  -0.006104   0.000247   0.000024
     8  H   -0.025858   0.539950   0.001564  -0.001577  -0.000184
     9  O   -0.006104   0.001564   7.817040   0.126692   0.242871
    10  O    0.000247  -0.001577   0.126692   8.245115  -0.052845
    11  H    0.000024  -0.000184   0.242871  -0.052845   0.569012
 Mulliken atomic charges:
              1
     1  C   -0.431575
     2  C   -0.443547
     3  H    0.360147
     4  H    0.152468
     5  H    0.147295
     6  H    0.151858
     7  H    0.165229
     8  H    0.141121
     9  O   -0.164889
    10  O   -0.314735
    11  H    0.236627
 Sum of Mulliken atomic charges =   0.00000
 Mulliken charges with hydrogens summed into heavy atoms:
              1
     1  C   -0.131812
     2  C    0.014662
     9  O    0.071738
    10  O    0.045411
 Sum of Mulliken charges with hydrogens summed into heavy atoms =   0.00000
          Atomic-Atomic Spin Densities.
              1          2          3          4          5          6
     1  C    0.655589  -0.038669   0.091576  -0.007314  -0.006614  -0.004232
     2  C   -0.038669  -0.022872   0.009469   0.003304   0.002930   0.003418
     3  H    0.091576   0.009469  -0.064454  -0.001883  -0.002009  -0.002419
     4  H   -0.007314   0.003304  -0.001883  -0.025276   0.005321   0.000156
     5  H   -0.006614   0.002930  -0.002009   0.005321  -0.024926   0.001053
     6  H   -0.004232   0.003418  -0.002419   0.000156   0.001053   0.008539
     7  H   -0.006823   0.006314  -0.002619   0.001132   0.000319   0.001631
     8  H   -0.019515   0.015437   0.001766  -0.001975  -0.002091  -0.004575
     9  O    0.036042  -0.011634   0.029648  -0.002275  -0.001667  -0.002196
    10  O   -0.110610   0.006157  -0.052272   0.005870   0.005732   0.003694
    11  H   -0.001306   0.000435  -0.000613   0.000061   0.000033   0.000217
              7          8          9         10         11
     1  C   -0.006823  -0.019515   0.036042  -0.110610  -0.001306
     2  C    0.006314   0.015437  -0.011634   0.006157   0.000435
     3  H   -0.002619   0.001766   0.029648  -0.052272  -0.000613
     4  H    0.001132  -0.001975  -0.002275   0.005870   0.000061
     5  H    0.000319  -0.002091  -0.001667   0.005732   0.000033
     6  H    0.001631  -0.004575  -0.002196   0.003694   0.000217
     7  H    0.012906  -0.006089  -0.005769   0.005965   0.000264
     8  H   -0.006089   0.053907   0.001877  -0.002823  -0.000067
     9  O   -0.005769   0.001877   0.105260  -0.078578  -0.003570
    10  O    0.005965  -0.002823  -0.078578   0.575161   0.004587
    11  H    0.000264  -0.000067  -0.003570   0.004587  -0.002240
 Mulliken atomic spin densities:
              1
     1  C    0.588124
     2  C   -0.025709
     3  H    0.006191
     4  H   -0.022878
     5  H   -0.021918
     6  H    0.005287
     7  H    0.007230
     8  H    0.035851
     9  O    0.067138
    10  O    0.362882
    11  H   -0.002198
 Sum of Mulliken atomic spin densities =   1.00000
 APT atomic charges:
              1
     1  C   -0.871072
     2  C   -1.061863
     3  H    0.290819
     4  H    0.371913
     5  H    0.414449
     6  H    0.292447
     7  H    0.251290
     8  H    0.525962
     9  O   -0.427473
    10  O   -0.251824
    11  H    0.465351
 Sum of APT charges=   0.00000
 APT Atomic charges with hydrogens summed into heavy atoms:
              1
     1  C   -0.084710
     2  C    0.007837
     3  H    0.000000
     4  H    0.000000
     5  H    0.000000
     6  H    0.000000
     7  H    0.000000
     8  H    0.000000
     9  O    0.037878
    10  O    0.038995
    11  H    0.000000
 Sum of APT charges=   0.00000
 Electronic spatial extent (au):  <R**2>=            410.2458
 Charge=              0.0000 electrons
 Dipole moment (field-independent basis, Debye):
    X=              1.9669    Y=             -1.1292    Z=              1.0607  Tot=              2.5038
 Quadrupole moment (field-independent basis, Debye-Ang):
   XX=            -27.5679   YY=            -24.9407   ZZ=            -25.7048
   XY=              2.8055   XZ=             -2.0817   YZ=             -1.8324
 Traceless Quadrupole moment (field-independent basis, Debye-Ang):
   XX=             -1.4967   YY=              1.1304   ZZ=              0.3663
   XY=              2.8055   XZ=             -2.0817   YZ=             -1.8324
 Octapole moment (field-independent basis, Debye-Ang**2):
  XXX=             -5.8547  YYY=             -2.5986  ZZZ=              0.4172  XYY=             -4.6442
  XXY=             -4.3914  XXZ=              3.5631  XZZ=             -3.3871  YZZ=             -0.8042
  YYZ=              1.9999  XYZ=              3.1964
 Hexadecapole moment (field-independent basis, Debye-Ang**3):
 XXXX=           -354.1836 YYYY=           -120.4727 ZZZZ=            -43.0393 XXXY=              4.6921
 XXXZ=             -7.5625 YYYX=              9.1668 YYYZ=              0.2098 ZZZX=             -1.3797
 ZZZY=             -2.3723 XXYY=            -77.4557 XXZZ=            -65.6856 YYZZ=            -25.7446
 XXYZ=             -3.8820 YYXZ=             -2.4773 ZZXY=              3.4055
 N-N= 1.287696588413D+02 E-N=-1.191273382077D+03  KE= 3.436013681172D+02
  Exact polarizability:   0.000   0.000   0.000   0.000   0.000   0.000
 Approx polarizability:  64.182   4.187  48.610  -1.331   0.550  40.566
                          Isotropic Fermi Contact Couplings
        Atom                 a.u.       MegaHertz       Gauss      10(-4) cm-1
     1  C(13)              0.15896     178.70453      63.76622      59.60941
     2  C(13)             -0.01364     -15.33786      -5.47293      -5.11616
     3  H(1)              -0.02985    -133.41466     -47.60567     -44.50234
     4  H(1)              -0.00545     -24.34796      -8.68796      -8.12161
     5  H(1)              -0.00513     -22.94804      -8.18843      -7.65464
     6  H(1)               0.00281      12.56519       4.48357       4.19130
     7  H(1)               0.00535      23.89167       8.52514       7.96940
     8  H(1)               0.02149      96.05375      34.27437      32.04008
     9  O(17)              0.01030      -6.24503      -2.22838      -2.08312
    10  O(17)              0.09727     -58.96237     -21.03924     -19.66773
    11  H(1)              -0.00133      -5.92389      -2.11379      -1.97600
 --------------------------------------------------------
       Center         ----  Spin Dipole Couplings  ----
                      3XX-RR        3YY-RR        3ZZ-RR
 --------------------------------------------------------
     1   Atom        0.671811     -0.347949     -0.323863
     2   Atom        0.021714     -0.003821     -0.017893
     3   Atom        0.236053     -0.118010     -0.118043
     4   Atom       -0.004953     -0.033739      0.038692
     5   Atom        0.001508     -0.004947      0.003440
     6   Atom       -0.003329      0.003929     -0.000600
     7   Atom       -0.004634      0.010838     -0.006204
     8   Atom        0.005668      0.001765     -0.007433
     9   Atom        0.431403     -0.239989     -0.191414
    10   Atom        1.842762     -0.935931     -0.906831
    11   Atom       -0.006713      0.008492     -0.001779
 --------------------------------------------------------
                        XY            XZ            YZ
 --------------------------------------------------------
     1   Atom        0.001356     -0.144419      0.000954
     2   Atom       -0.014696      0.001702     -0.001981
     3   Atom        0.022761     -0.046712     -0.001793
     4   Atom        0.002158     -0.009004     -0.029231
     5   Atom        0.017164      0.012415      0.042807
     6   Atom       -0.003807      0.002867     -0.008840
     7   Atom       -0.001712     -0.000659      0.006004
     8   Atom       -0.007348     -0.001597     -0.000742
     9   Atom        0.015661     -0.016260     -0.037796
    10   Atom       -0.344481     -0.437277      0.058128
    11   Atom        0.006385     -0.001345     -0.015656
 --------------------------------------------------------


 ---------------------------------------------------------------------------------
              Anisotropic Spin Dipole Couplings in Principal Axis System
 ---------------------------------------------------------------------------------

       Atom             a.u.   MegaHertz   Gauss  10(-4) cm-1        Axes

              Baa    -0.3483   -46.736   -16.677   -15.589 -0.0405  0.9601 -0.2769
     1 C(13)  Bbb    -0.3441   -46.169   -16.474   -15.400  0.1348  0.2798  0.9505
              Bcc     0.6923    92.905    33.151    30.990  0.9901  0.0012 -0.1407
 
              Baa    -0.0182    -2.438    -0.870    -0.813  0.0130  0.1498  0.9886
     2 C(13)  Bbb    -0.0104    -1.391    -0.496    -0.464  0.4185  0.8971 -0.1414
              Bcc     0.0285     3.829     1.366     1.277  0.9081 -0.4156  0.0510
 
              Baa    -0.1244   -66.357   -23.678   -22.134  0.1392 -0.2267  0.9640
     3 H(1)   Bbb    -0.1192   -63.589   -22.690   -21.211 -0.0316  0.9719  0.2331
              Bcc     0.2435   129.946    46.368    43.345  0.9898  0.0629 -0.1282
 
              Baa    -0.0441   -23.524    -8.394    -7.847  0.0252  0.9418  0.3353
     4 H(1)   Bbb    -0.0065    -3.445    -1.229    -1.149  0.9862 -0.0784  0.1459
              Bcc     0.0505    26.969     9.623     8.996 -0.1637 -0.3270  0.9307
 
              Baa    -0.0442   -23.602    -8.422    -7.873 -0.1066  0.7535 -0.6488
     5 H(1)   Bbb    -0.0067    -3.597    -1.284    -1.200  0.9156 -0.1800 -0.3596
              Bcc     0.0510    27.199     9.705     9.073  0.3877  0.6324  0.6707
 
              Baa    -0.0075    -3.982    -1.421    -1.328  0.0240  0.6179  0.7859
     6 H(1)   Bbb    -0.0048    -2.553    -0.911    -0.852  0.9559  0.2159 -0.1989
              Bcc     0.0122     6.535     2.332     2.180 -0.2926  0.7561 -0.5855
 
              Baa    -0.0081    -4.327    -1.544    -1.443  0.0334 -0.2991  0.9536
     7 H(1)   Bbb    -0.0048    -2.572    -0.918    -0.858  0.9940  0.1089 -0.0006
              Bcc     0.0129     6.900     2.462     2.301 -0.1037  0.9480  0.3010
 
              Baa    -0.0081    -4.297    -1.533    -1.433  0.2449  0.2541  0.9357
     8 H(1)   Bbb    -0.0033    -1.762    -0.629    -0.588  0.5555  0.7542 -0.3502
              Bcc     0.0114     6.059     2.162     2.021  0.7947 -0.6055 -0.0436
 
              Baa    -0.2607    18.863     6.731     6.292 -0.0087  0.8786  0.4774
     9 O(17)  Bbb    -0.1716    12.414     4.430     4.141  0.0361 -0.4768  0.8782
              Bcc     0.4322   -31.277   -11.160   -10.433  0.9993  0.0248 -0.0276
 
              Baa    -0.9813    71.008    25.338    23.686  0.0104  0.8171 -0.5763
    10 O(17)  Bbb    -0.9715    70.300    25.085    23.450  0.1938  0.5638  0.8029
              Bcc     1.9529  -141.308   -50.422   -47.135  0.9810 -0.1200 -0.1524
 
              Baa    -0.0142    -7.583    -2.706    -2.530 -0.3796  0.5951  0.7083
    11 H(1)   Bbb    -0.0069    -3.685    -1.315    -1.229  0.9008  0.0633  0.4296
              Bcc     0.0211    11.268     4.021     3.759  0.2109  0.8011 -0.5601
 

 ---------------------------------------------------------------------------------

 Calling FoFJK, ICntrl=    100147 FMM=F ISym2X=0 I1Cent= 0 IOpClX= 1 NMat=1 NMatS=1 NMatT=0.
 ***** Axes restored to original set *****
 -------------------------------------------------------------------
 Center     Atomic                   Forces (Hartrees/Bohr)
 Number     Number              X              Y              Z
 -------------------------------------------------------------------
      1        6           0.000001564    0.000002560   -0.000003754
      2        6           0.000001648   -0.000000543   -0.000004384
      3        1          -0.000002329   -0.000000128    0.000004142
      4        1          -0.000005036    0.000002579   -0.000000200
      5        1          -0.000002160    0.000001574   -0.000002003
      6        1           0.000005214    0.000000213   -0.000002019
      7        1           0.000000853   -0.000000194   -0.000001528
      8        1           0.000000233    0.000004627   -0.000006238
      9        8           0.000002404   -0.000004843    0.000002674
     10        8          -0.000003924   -0.000003237    0.000006071
     11        1           0.000001531   -0.000002608    0.000007240
 -------------------------------------------------------------------
 Cartesian Forces:  Max     0.000007240 RMS     0.000003333

 GradGradGradGradGradGradGradGradGradGradGradGradGradGradGradGradGradGrad
 Berny optimization.
 Internal  Forces:  Max     0.000003862 RMS     0.000001651
 Search for a saddle point.
 Step number   1 out of a maximum of   49
 All quantities printed in internal units (Hartrees-Bohrs-Radians)
 Swaping is turned off.
 Second derivative matrix not updated -- analytic derivatives used.
 ITU=  0
     Eigenvalues ---   -0.06880   0.00010   0.00108   0.00341   0.01757
     Eigenvalues ---    0.02511   0.03191   0.04308   0.04420   0.04899
     Eigenvalues ---    0.07528   0.09100   0.10393   0.11951   0.14370
     Eigenvalues ---    0.15901   0.18741   0.19492   0.22913   0.31569
     Eigenvalues ---    0.33195   0.33885   0.34767   0.34959   0.35323
     Eigenvalues ---    0.41654   0.52358
 Eigenvectors required to have negative eigenvalues:
                          R8        R2        R9        D5        D7
   1                    0.69713  -0.66314  -0.12583  -0.08208   0.07971
                          D6        D9        D4        D8        D14
   1                   -0.07476   0.07100  -0.06604   0.06368  -0.06030
 RFO step:  Lambda0=1.388254789D-11 Lambda= 0.00000000D+00.
 Linear search not attempted -- option 19 set.
 Iteration  1 RMS(Cart)=  0.00040101 RMS(Int)=  0.00000020
 Iteration  2 RMS(Cart)=  0.00000033 RMS(Int)=  0.00000000
 Variable       Old X    -DE/DX   Delta X   Delta X   Delta X     New X
                                 (Linear)    (Quad)   (Total)
    R1        2.83417   0.00000   0.00000   0.00001   0.00001   2.83418
    R2        2.52719   0.00000   0.00000   0.00001   0.00001   2.52720
    R3        2.05267   0.00000   0.00000   0.00000   0.00000   2.05267
    R4        2.05309   0.00000   0.00000   0.00000   0.00000   2.05309
    R5        2.06005   0.00000   0.00000   0.00000   0.00000   2.06005
    R6        2.05919   0.00000   0.00000   0.00000   0.00000   2.05919
    R7        2.06805   0.00000   0.00000   0.00000   0.00000   2.06805
    R8        2.22151   0.00000   0.00000   0.00003   0.00003   2.22155
    R9        2.61685   0.00000   0.00000   0.00000   0.00000   2.61686
   R10        1.82280   0.00000   0.00000   0.00000   0.00000   1.82279
    A1        1.83544   0.00000   0.00000   0.00005   0.00005   1.83549
    A2        2.02444   0.00000   0.00000   0.00000   0.00000   2.02444
    A3        2.03014   0.00000   0.00000   0.00000   0.00000   2.03013
    A4        1.76987   0.00000   0.00000  -0.00001  -0.00001   1.76986
    A5        1.78538   0.00000   0.00000  -0.00001  -0.00001   1.78536
    A6        1.97209   0.00000   0.00000  -0.00002  -0.00002   1.97208
    A7        1.94474   0.00000   0.00000   0.00001   0.00001   1.94476
    A8        1.93927   0.00000   0.00000   0.00003   0.00003   1.93930
    A9        1.93352   0.00000   0.00000  -0.00003  -0.00003   1.93349
   A10        1.89457   0.00000   0.00000  -0.00001  -0.00001   1.89455
   A11        1.87310   0.00000   0.00000   0.00000   0.00000   1.87310
   A12        1.87591   0.00000   0.00000   0.00001   0.00001   1.87592
   A13        3.00284   0.00000   0.00000   0.00011   0.00011   3.00296
   A14        1.80250   0.00000   0.00000  -0.00003  -0.00003   1.80247
   A15        1.81849   0.00000   0.00000   0.00000   0.00000   1.81849
    D1       -1.12217   0.00000   0.00000  -0.00017  -0.00017  -1.12234
    D2        0.99298   0.00000   0.00000  -0.00017  -0.00017   0.99282
    D3        3.07697   0.00000   0.00000  -0.00016  -0.00016   3.07681
    D4       -3.06132   0.00000   0.00000  -0.00019  -0.00019  -3.06151
    D5       -0.94616   0.00000   0.00000  -0.00019  -0.00019  -0.94635
    D6        1.13782   0.00000   0.00000  -0.00018  -0.00018   1.13765
    D7        0.83861   0.00000   0.00000  -0.00016  -0.00016   0.83845
    D8        2.95377   0.00000   0.00000  -0.00015  -0.00015   2.95361
    D9       -1.24543   0.00000   0.00000  -0.00015  -0.00015  -1.24558
   D10       -0.12517   0.00000   0.00000  -0.00055  -0.00055  -0.12572
   D11        1.98999   0.00000   0.00000  -0.00053  -0.00053   1.98946
   D12       -2.25361   0.00000   0.00000  -0.00056  -0.00056  -2.25417
   D13       -0.40763   0.00000   0.00000   0.00149   0.00149  -0.40613
   D14        1.71247   0.00000   0.00000   0.00018   0.00018   1.71265
         Item               Value     Threshold  Converged?
 Maximum Force            0.000004     0.000450     YES
 RMS     Force            0.000002     0.000300     YES
 Maximum Displacement     0.001248     0.001800     YES
 RMS     Displacement     0.000401     0.001200     YES
 Predicted change in Energy=-2.358684D-09
 Optimization completed.
    -- Stationary point found.
                           ----------------------------
                           !   Optimized Parameters   !
                           ! (Angstroms and Degrees)  !
 --------------------------                            --------------------------
 ! Name  Definition              Value          Derivative Info.                !
 --------------------------------------------------------------------------------
 ! R1    R(1,2)                  1.4998         -DE/DX =    0.0                 !
 ! R2    R(1,3)                  1.3373         -DE/DX =    0.0                 !
 ! R3    R(1,4)                  1.0862         -DE/DX =    0.0                 !
 ! R4    R(1,5)                  1.0865         -DE/DX =    0.0                 !
 ! R5    R(2,6)                  1.0901         -DE/DX =    0.0                 !
 ! R6    R(2,7)                  1.0897         -DE/DX =    0.0                 !
 ! R7    R(2,8)                  1.0944         -DE/DX =    0.0                 !
 ! R8    R(3,10)                 1.1756         -DE/DX =    0.0                 !
 ! R9    R(9,10)                 1.3848         -DE/DX =    0.0                 !
 ! R10   R(9,11)                 0.9646         -DE/DX =    0.0                 !
 ! A1    A(2,1,3)              105.163          -DE/DX =    0.0                 !
 ! A2    A(2,1,4)              115.9921         -DE/DX =    0.0                 !
 ! A3    A(2,1,5)              116.3182         -DE/DX =    0.0                 !
 ! A4    A(3,1,4)              101.406          -DE/DX =    0.0                 !
 ! A5    A(3,1,5)              102.2946         -DE/DX =    0.0                 !
 ! A6    A(4,1,5)              112.9926         -DE/DX =    0.0                 !
 ! A7    A(1,2,6)              111.4257         -DE/DX =    0.0                 !
 ! A8    A(1,2,7)              111.112          -DE/DX =    0.0                 !
 ! A9    A(1,2,8)              110.7826         -DE/DX =    0.0                 !
 ! A10   A(6,2,7)              108.5508         -DE/DX =    0.0                 !
 ! A11   A(6,2,8)              107.3208         -DE/DX =    0.0                 !
 ! A12   A(7,2,8)              107.4817         -DE/DX =    0.0                 !
 ! A13   A(1,3,10)             172.0502         -DE/DX =    0.0                 !
 ! A14   A(10,9,11)            103.2756         -DE/DX =    0.0                 !
 ! A15   A(3,10,9)             104.1919         -DE/DX =    0.0                 !
 ! D1    D(3,1,2,6)            -64.2956         -DE/DX =    0.0                 !
 ! D2    D(3,1,2,7)             56.8938         -DE/DX =    0.0                 !
 ! D3    D(3,1,2,8)            176.2975         -DE/DX =    0.0                 !
 ! D4    D(4,1,2,6)           -175.4005         -DE/DX =    0.0                 !
 ! D5    D(4,1,2,7)            -54.2112         -DE/DX =    0.0                 !
 ! D6    D(4,1,2,8)             65.1926         -DE/DX =    0.0                 !
 ! D7    D(5,1,2,6)             48.049          -DE/DX =    0.0                 !
 ! D8    D(5,1,2,7)            169.2383         -DE/DX =    0.0                 !
 ! D9    D(5,1,2,8)            -71.3579         -DE/DX =    0.0                 !
 ! D10   D(2,1,3,10)            -7.1718         -DE/DX =    0.0                 !
 ! D11   D(4,1,3,10)           114.018          -DE/DX =    0.0                 !
 ! D12   D(5,1,3,10)          -129.1226         -DE/DX =    0.0                 !
 ! D13   D(1,3,10,9)           -23.3552         -DE/DX =    0.0                 !
 ! D14   D(11,9,10,3)           98.1173         -DE/DX =    0.0                 !
 --------------------------------------------------------------------------------
 GradGradGradGradGradGradGradGradGradGradGradGradGradGradGradGradGradGrad

                          Input orientation:                          
 ---------------------------------------------------------------------
 Center     Atomic      Atomic             Coordinates (Angstroms)
 Number     Number       Type             X           Y           Z
 ---------------------------------------------------------------------
      1          6           0        1.196493    0.751197   -0.128590
      2          6           0        1.568492   -0.685310    0.089117
      3          1           0       -0.129385    0.798533    0.039526
      4          1           0        1.297435    1.120269   -1.145193
      5          1           0        1.549588    1.458484    0.616691
      6          1           0        1.363670   -0.998956    1.112863
      7          1           0        1.022082   -1.339477   -0.589776
      8          1           0        2.636372   -0.841639   -0.092068
      9          8           0       -1.555784   -0.611850   -0.232547
     10          8           0       -1.288218    0.677525    0.195858
     11          1           0       -1.577660   -1.117940    0.588314
 ---------------------------------------------------------------------
                    Distance matrix (angstroms):
                    1          2          3          4          5
     1  C    0.000000
     2  C    1.499777   0.000000
     3  H    1.337332   2.255446   0.000000
     4  H    1.086225   2.203885   1.882256   0.000000
     5  H    1.086451   2.207837   1.894097   1.811686   0.000000
     6  H    2.152252   1.090129   2.571426   3.097470   2.513914
     7  H    2.148029   1.089676   2.508582   2.536663   3.092315
     8  H    2.147490   1.094365   3.218213   2.598251   2.640834
     9  O    3.073066   3.141650   2.024307   3.460349   3.827639
    10  O    2.506887   3.166939   1.175575   2.946191   2.973237
    11  H    3.421045   3.214753   2.464049   4.034947   4.051968
                    6          7          8          9         10
     6  H    0.000000
     7  H    1.769637   0.000000
     8  H    1.759653   1.761104   0.000000
     9  O    3.237776   2.702304   4.200799   0.000000
    10  O    3.268638   3.165913   4.218195   1.384778   0.000000
    11  H    2.990106   2.862802   4.277538   0.964582   1.860509
                   11
    11  H    0.000000
 Stoichiometry    C2H7O2(2)
 Framework group  C1[X(C2H7O2)]
 Deg. of freedom    27
 Full point group                 C1      NOp   1
 Largest Abelian subgroup         C1      NOp   1
 Largest concise Abelian subgroup C1      NOp   1
                         Standard orientation:                         
 ---------------------------------------------------------------------
 Center     Atomic      Atomic             Coordinates (Angstroms)
 Number     Number       Type             X           Y           Z
 ---------------------------------------------------------------------
      1          6           0        1.196493    0.751197   -0.128590
      2          6           0        1.568492   -0.685310    0.089117
      3          1           0       -0.129385    0.798533    0.039526
      4          1           0        1.297435    1.120269   -1.145193
      5          1           0        1.549588    1.458484    0.616691
      6          1           0        1.363670   -0.998956    1.112863
      7          1           0        1.022082   -1.339477   -0.589776
      8          1           0        2.636372   -0.841639   -0.092068
      9          8           0       -1.555784   -0.611850   -0.232547
     10          8           0       -1.288218    0.677525    0.195858
     11          1           0       -1.577660   -1.117940    0.588314
 ---------------------------------------------------------------------
 Rotational constants (GHZ):     12.6382528      3.7906799      3.1087879
 1\1\GINC-COMPUTE-3-046\FTS\UM062X\6-311+G(2df,2p)\C2H7O2(2)\ROOT\20-Se
 p-2016\0\\# m062x/6-311+g(2df,2p) opt=(ts,calcfc,noeigentest) freq\\CC
 +[O]O_C[CH2]+OO\\0,2\C,1.196493,0.751197,-0.12859\C,1.568492,-0.68531,
 0.089117\H,-0.129385,0.798533,0.039526\H,1.297435,1.120269,-1.145193\H
 ,1.549588,1.458484,0.616691\H,1.36367,-0.998956,1.112863\H,1.022082,-1
 .339477,-0.589776\H,2.636372,-0.841639,-0.092068\O,-1.555784,-0.61185,
 -0.232547\O,-1.288218,0.677525,0.195858\H,-1.57766,-1.11794,0.588314\\
 Version=EM64L-G09RevB.01\State=2-A\HF=-230.6687525\S2=0.759925\S2-1=0.
 \S2A=0.75005\RMSD=4.263e-09\RMSF=3.333e-06\Dipole=0.7738247,-0.444253,
 0.4173297\Polar=0.,0.,0.,0.,0.,0.\Quadrupole=-1.1127783,0.8404429,0.27
 23353,2.0858363,-1.547657,-1.3623523\PG=C01 [X(C2H7O2)]\\@


 A leading authority is anyone who has guessed right more than once.
 -- Frank A. Clark
 Job cpu time:  0 days  1 hours  9 minutes  7.8 seconds.
 File lengths (MBytes):  RWF=    118 Int=      0 D2E=      0 Chk=     32 Scr=      1
 Normal termination of Gaussian 09 at Tue Sep 20 12:47:12 2016.
 Link1:  Proceeding to internal job step number  2.
 ----------------------------------------------------------------------
 #N Geom=AllCheck Guess=TCheck SCRF=Check GenChk UM062X/6-311+G(2df,2p)
  Freq
 ----------------------------------------------------------------------
 1/5=1,10=4,11=1,29=7,30=1,38=1,40=1/1,3;
 2/12=2,40=1/2;
 3/5=4,6=6,7=214,11=2,14=-4,16=1,25=1,30=1,70=2,71=2,74=-55,116=2/1,2,3;
 4/5=101/1;
 5/5=2,98=1/2;
 8/6=4,10=90,11=11/1;
 11/6=1,8=1,9=11,15=111,16=1/1,2,10;
 10/6=1/2;
 6/7=2,8=2,9=2,10=2,18=1,28=1/1;
 7/8=1,10=1,25=1/1,2,3,16;
 1/5=1,10=4,11=1,30=1/3;
 99//99;
 -----------------
 CC+[O]O_C[CH2]+OO
 -----------------
 Redundant internal coordinates taken from checkpoint file:
 /gss_gpfs_scratch/r.west/QMscratch/CC+[O]O_C[CH2]+OO.chk
 Charge =  0 Multiplicity = 2
 C,0,1.196493,0.751197,-0.12859
 C,0,1.568492,-0.68531,0.089117
 H,0,-0.129385,0.798533,0.039526
 H,0,1.297435,1.120269,-1.145193
 H,0,1.549588,1.458484,0.616691
 H,0,1.36367,-0.998956,1.112863
 H,0,1.022082,-1.339477,-0.589776
 H,0,2.636372,-0.841639,-0.092068
 O,0,-1.555784,-0.61185,-0.232547
 O,0,-1.288218,0.677525,0.195858
 H,0,-1.57766,-1.11794,0.588314
 Recover connectivity data from disk.

 GradGradGradGradGradGradGradGradGradGradGradGradGradGradGradGradGradGrad
 Berny optimization.
 Initialization pass.
                           ----------------------------
                           !    Initial Parameters    !
                           ! (Angstroms and Degrees)  !
 --------------------------                            --------------------------
 ! Name  Definition              Value          Derivative Info.                !
 --------------------------------------------------------------------------------
 ! R1    R(1,2)                  1.4998         calculate D2E/DX2 analytically  !
 ! R2    R(1,3)                  1.3373         calculate D2E/DX2 analytically  !
 ! R3    R(1,4)                  1.0862         calculate D2E/DX2 analytically  !
 ! R4    R(1,5)                  1.0865         calculate D2E/DX2 analytically  !
 ! R5    R(2,6)                  1.0901         calculate D2E/DX2 analytically  !
 ! R6    R(2,7)                  1.0897         calculate D2E/DX2 analytically  !
 ! R7    R(2,8)                  1.0944         calculate D2E/DX2 analytically  !
 ! R8    R(3,10)                 1.1756         calculate D2E/DX2 analytically  !
 ! R9    R(9,10)                 1.3848         calculate D2E/DX2 analytically  !
 ! R10   R(9,11)                 0.9646         calculate D2E/DX2 analytically  !
 ! A1    A(2,1,3)              105.163          calculate D2E/DX2 analytically  !
 ! A2    A(2,1,4)              115.9921         calculate D2E/DX2 analytically  !
 ! A3    A(2,1,5)              116.3182         calculate D2E/DX2 analytically  !
 ! A4    A(3,1,4)              101.406          calculate D2E/DX2 analytically  !
 ! A5    A(3,1,5)              102.2946         calculate D2E/DX2 analytically  !
 ! A6    A(4,1,5)              112.9926         calculate D2E/DX2 analytically  !
 ! A7    A(1,2,6)              111.4257         calculate D2E/DX2 analytically  !
 ! A8    A(1,2,7)              111.112          calculate D2E/DX2 analytically  !
 ! A9    A(1,2,8)              110.7826         calculate D2E/DX2 analytically  !
 ! A10   A(6,2,7)              108.5508         calculate D2E/DX2 analytically  !
 ! A11   A(6,2,8)              107.3208         calculate D2E/DX2 analytically  !
 ! A12   A(7,2,8)              107.4817         calculate D2E/DX2 analytically  !
 ! A13   A(1,3,10)             172.0502         calculate D2E/DX2 analytically  !
 ! A14   A(10,9,11)            103.2756         calculate D2E/DX2 analytically  !
 ! A15   A(3,10,9)             104.1919         calculate D2E/DX2 analytically  !
 ! D1    D(3,1,2,6)            -64.2956         calculate D2E/DX2 analytically  !
 ! D2    D(3,1,2,7)             56.8938         calculate D2E/DX2 analytically  !
 ! D3    D(3,1,2,8)            176.2975         calculate D2E/DX2 analytically  !
 ! D4    D(4,1,2,6)           -175.4005         calculate D2E/DX2 analytically  !
 ! D5    D(4,1,2,7)            -54.2112         calculate D2E/DX2 analytically  !
 ! D6    D(4,1,2,8)             65.1926         calculate D2E/DX2 analytically  !
 ! D7    D(5,1,2,6)             48.049          calculate D2E/DX2 analytically  !
 ! D8    D(5,1,2,7)            169.2383         calculate D2E/DX2 analytically  !
 ! D9    D(5,1,2,8)            -71.3579         calculate D2E/DX2 analytically  !
 ! D10   D(2,1,3,10)            -7.1718         calculate D2E/DX2 analytically  !
 ! D11   D(4,1,3,10)           114.018          calculate D2E/DX2 analytically  !
 ! D12   D(5,1,3,10)          -129.1226         calculate D2E/DX2 analytically  !
 ! D13   D(1,3,10,9)           -23.3552         calculate D2E/DX2 analytically  !
 ! D14   D(11,9,10,3)           98.1173         calculate D2E/DX2 analytically  !
 --------------------------------------------------------------------------------
 Trust Radius=3.00D-01 FncErr=1.00D-07 GrdErr=1.00D-07
 Number of steps in this run=      2 maximum allowed number of steps=      2.
 Search for a saddle point of order  1.
 GradGradGradGradGradGradGradGradGradGradGradGradGradGradGradGradGradGrad

                          Input orientation:                          
 ---------------------------------------------------------------------
 Center     Atomic      Atomic             Coordinates (Angstroms)
 Number     Number       Type             X           Y           Z
 ---------------------------------------------------------------------
      1          6           0        1.196493    0.751197   -0.128590
      2          6           0        1.568492   -0.685310    0.089117
      3          1           0       -0.129385    0.798533    0.039526
      4          1           0        1.297435    1.120269   -1.145193
      5          1           0        1.549588    1.458484    0.616691
      6          1           0        1.363670   -0.998956    1.112863
      7          1           0        1.022082   -1.339477   -0.589776
      8          1           0        2.636372   -0.841639   -0.092068
      9          8           0       -1.555784   -0.611850   -0.232547
     10          8           0       -1.288218    0.677525    0.195858
     11          1           0       -1.577660   -1.117940    0.588314
 ---------------------------------------------------------------------
                    Distance matrix (angstroms):
                    1          2          3          4          5
     1  C    0.000000
     2  C    1.499777   0.000000
     3  H    1.337332   2.255446   0.000000
     4  H    1.086225   2.203885   1.882256   0.000000
     5  H    1.086451   2.207837   1.894097   1.811686   0.000000
     6  H    2.152252   1.090129   2.571426   3.097470   2.513914
     7  H    2.148029   1.089676   2.508582   2.536663   3.092315
     8  H    2.147490   1.094365   3.218213   2.598251   2.640834
     9  O    3.073066   3.141650   2.024307   3.460349   3.827639
    10  O    2.506887   3.166939   1.175575   2.946191   2.973237
    11  H    3.421045   3.214753   2.464049   4.034947   4.051968
                    6          7          8          9         10
     6  H    0.000000
     7  H    1.769637   0.000000
     8  H    1.759653   1.761104   0.000000
     9  O    3.237776   2.702304   4.200799   0.000000
    10  O    3.268638   3.165913   4.218195   1.384778   0.000000
    11  H    2.990106   2.862802   4.277538   0.964582   1.860509
                   11
    11  H    0.000000
 Stoichiometry    C2H7O2(2)
 Framework group  C1[X(C2H7O2)]
 Deg. of freedom    27
 Full point group                 C1      NOp   1
 Largest Abelian subgroup         C1      NOp   1
 Largest concise Abelian subgroup C1      NOp   1
                         Standard orientation:                         
 ---------------------------------------------------------------------
 Center     Atomic      Atomic             Coordinates (Angstroms)
 Number     Number       Type             X           Y           Z
 ---------------------------------------------------------------------
      1          6           0        1.196493    0.751197   -0.128590
      2          6           0        1.568492   -0.685310    0.089117
      3          1           0       -0.129385    0.798533    0.039526
      4          1           0        1.297435    1.120269   -1.145193
      5          1           0        1.549588    1.458484    0.616691
      6          1           0        1.363670   -0.998956    1.112863
      7          1           0        1.022082   -1.339477   -0.589776
      8          1           0        2.636372   -0.841639   -0.092068
      9          8           0       -1.555784   -0.611850   -0.232547
     10          8           0       -1.288218    0.677525    0.195858
     11          1           0       -1.577660   -1.117940    0.588314
 ---------------------------------------------------------------------
 Rotational constants (GHZ):     12.6382528      3.7906799      3.1087879
 Standard basis: 6-311+G(2df,2p) (5D, 7F)
 There are   199 symmetry adapted basis functions of A   symmetry.
 Integral buffers will be    131072 words long.
 Raffenetti 2 integral format.
 Two-electron integral symmetry is turned on.
   199 basis functions,   285 primitive gaussians,   219 cartesian basis functions
    18 alpha electrons       17 beta electrons
       nuclear repulsion energy       128.7696588413 Hartrees.
 NAtoms=   11 NActive=   11 NUniq=   11 SFac= 1.00D+00 NAtFMM=   50 NAOKFM=F Big=F
 One-electron integrals computed using PRISM.
 NBasis=   199 RedAO= T  NBF=   199
 NBsUse=   199 1.00D-06 NBFU=   199
 Initial guess read from the checkpoint file:  /gss_gpfs_scratch/r.west/QMscratch/CC+[O]O_C[CH2]+OO.chk
 B after Tr=     0.000000    0.000000    0.000000
         Rot=    1.000000    0.000000    0.000000    0.000000 Ang=   0.00 deg.
 Initial guess orbital symmetries:
 Alpha Orbitals:
       Occupied  (A) (A) (A) (A) (A) (A) (A) (A) (A) (A) (A) (A)
                 (A) (A) (A) (A) (A) (A)
       Virtual   (A) (A) (A) (A) (A) (A) (A) (A) (A) (A) (A) (A)
                 (A) (A) (A) (A) (A) (A) (A) (A) (A) (A) (A) (A)
                 (A) (A) (A) (A) (A) (A) (A) (A) (A) (A) (A) (A)
                 (A) (A) (A) (A) (A) (A) (A) (A) (A) (A) (A) (A)
                 (A) (A) (A) (A) (A) (A) (A) (A) (A) (A) (A) (A)
                 (A) (A) (A) (A) (A) (A) (A) (A) (A) (A) (A) (A)
                 (A) (A) (A) (A) (A) (A) (A) (A) (A) (A) (A) (A)
                 (A) (A) (A) (A) (A) (A) (A) (A) (A) (A) (A) (A)
                 (A) (A) (A) (A) (A) (A) (A) (A) (A) (A) (A) (A)
                 (A) (A) (A) (A) (A) (A) (A) (A) (A) (A) (A) (A)
                 (A) (A) (A) (A) (A) (A) (A) (A) (A) (A) (A) (A)
                 (A) (A) (A) (A) (A) (A) (A) (A) (A) (A) (A) (A)
                 (A) (A) (A) (A) (A) (A) (A) (A) (A) (A) (A) (A)
                 (A) (A) (A) (A) (A) (A) (A) (A) (A) (A) (A) (A)
                 (A) (A) (A) (A) (A) (A) (A) (A) (A) (A) (A) (A)
                 (A)
 Beta  Orbitals:
       Occupied  (A) (A) (A) (A) (A) (A) (A) (A) (A) (A) (A) (A)
                 (A) (A) (A) (A) (A)
       Virtual   (A) (A) (A) (A) (A) (A) (A) (A) (A) (A) (A) (A)
                 (A) (A) (A) (A) (A) (A) (A) (A) (A) (A) (A) (A)
                 (A) (A) (A) (A) (A) (A) (A) (A) (A) (A) (A) (A)
                 (A) (A) (A) (A) (A) (A) (A) (A) (A) (A) (A) (A)
                 (A) (A) (A) (A) (A) (A) (A) (A) (A) (A) (A) (A)
                 (A) (A) (A) (A) (A) (A) (A) (A) (A) (A) (A) (A)
                 (A) (A) (A) (A) (A) (A) (A) (A) (A) (A) (A) (A)
                 (A) (A) (A) (A) (A) (A) (A) (A) (A) (A) (A) (A)
                 (A) (A) (A) (A) (A) (A) (A) (A) (A) (A) (A) (A)
                 (A) (A) (A) (A) (A) (A) (A) (A) (A) (A) (A) (A)
                 (A) (A) (A) (A) (A) (A) (A) (A) (A) (A) (A) (A)
                 (A) (A) (A) (A) (A) (A) (A) (A) (A) (A) (A) (A)
                 (A) (A) (A) (A) (A) (A) (A) (A) (A) (A) (A) (A)
                 (A) (A) (A) (A) (A) (A) (A) (A) (A) (A) (A) (A)
                 (A) (A) (A) (A) (A) (A) (A) (A) (A) (A) (A) (A)
                 (A) (A)
 Initial guess <Sx>= 0.0000 <Sy>= 0.0000 <Sz>= 0.5000 <S**2>= 0.7599 S= 0.5050
 Requested convergence on RMS density matrix=1.00D-08 within 128 cycles.
 Requested convergence on MAX density matrix=1.00D-06.
 Requested convergence on             energy=1.00D-06.
 No special actions if energy rises.
 Keep R1 and R2 ints in memory in canonical form, NReq=585939035.
 SCF Done:  E(UM062X) =  -230.668752543     A.U. after    1 cycles
             Convg  =    0.9499D-09             -V/T =  2.0033
 <Sx>= 0.0000 <Sy>= 0.0000 <Sz>= 0.5000 <S**2>= 0.7599 S= 0.5050
 <L.S>= 0.000000000000E+00
 Annihilation of the first spin contaminant:
 S**2 before annihilation     0.7599,   after     0.7500
 Range of M.O.s used for correlation:     1   199
 NBasis=   199 NAE=    18 NBE=    17 NFC=     0 NFV=     0
 NROrb=    199 NOA=    18 NOB=    17 NVA=   181 NVB=   182

 **** Warning!!: The largest alpha MO coefficient is  0.41032909D+02


 **** Warning!!: The largest beta MO coefficient is  0.40564299D+02

 Symmetrizing basis deriv contribution to polar:
 IMax=3 JMax=2 DiffMx= 0.00D+00
 G2DrvN: will do    12 centers at a time, making    1 passes doing MaxLOS=3.
 Calling FoFCou, ICntrl=  3107 FMM=F I1Cent=   0 AccDes= 0.00D+00.
 FoFDir/FoFCou used for L=0 through L=3.
 End of G2Drv Frequency-dependent properties file   721 does not exist.
 End of G2Drv Frequency-dependent properties file   722 does not exist.
          IDoAtm=11111111111
          Differentiating once with respect to electric field.
                with respect to dipole field.
          Differentiating once with respect to nuclear coordinates.
          Keep R1 and R2 ints in memory in canonical form, NReq=582296210.
          There are    36 degrees of freedom in the 1st order CPHF.  IDoFFX=5.
     33 vectors produced by pass  0 Test12= 1.76D-14 2.78D-09 XBig12= 7.12D+01 4.85D+00.
 AX will form    33 AO Fock derivatives at one time.
     33 vectors produced by pass  1 Test12= 1.76D-14 2.78D-09 XBig12= 7.59D+00 4.35D-01.
     33 vectors produced by pass  2 Test12= 1.76D-14 2.78D-09 XBig12= 4.19D-01 1.64D-01.
     33 vectors produced by pass  3 Test12= 1.76D-14 2.78D-09 XBig12= 7.15D-03 1.18D-02.
     33 vectors produced by pass  4 Test12= 1.76D-14 2.78D-09 XBig12= 8.33D-05 1.50D-03.
     33 vectors produced by pass  5 Test12= 1.76D-14 2.78D-09 XBig12= 8.81D-07 1.03D-04.
     32 vectors produced by pass  6 Test12= 1.76D-14 2.78D-09 XBig12= 7.68D-09 8.07D-06.
     13 vectors produced by pass  7 Test12= 1.76D-14 2.78D-09 XBig12= 5.51D-11 1.22D-06.
      3 vectors produced by pass  8 Test12= 1.76D-14 2.78D-09 XBig12= 3.25D-13 5.06D-08.
      2 vectors produced by pass  9 Test12= 1.76D-14 2.78D-09 XBig12= 2.78D-15 1.01D-08.
      1 vectors produced by pass 10 Test12= 1.76D-14 2.78D-09 XBig12= 9.80D-17 3.70D-09.
 Inverted reduced A of dimension   249 with in-core refinement.
 Isotropic polarizability for W=    0.000000       47.31 Bohr**3.
 End of Minotr Frequency-dependent properties file   721 does not exist.
 End of Minotr Frequency-dependent properties file   722 does not exist.

 **********************************************************************

            Population analysis using the SCF density.

 **********************************************************************

 Orbital symmetries:
 Alpha Orbitals:
       Occupied  (A) (A) (A) (A) (A) (A) (A) (A) (A) (A) (A) (A)
                 (A) (A) (A) (A) (A) (A)
       Virtual   (A) (A) (A) (A) (A) (A) (A) (A) (A) (A) (A) (A)
                 (A) (A) (A) (A) (A) (A) (A) (A) (A) (A) (A) (A)
                 (A) (A) (A) (A) (A) (A) (A) (A) (A) (A) (A) (A)
                 (A) (A) (A) (A) (A) (A) (A) (A) (A) (A) (A) (A)
                 (A) (A) (A) (A) (A) (A) (A) (A) (A) (A) (A) (A)
                 (A) (A) (A) (A) (A) (A) (A) (A) (A) (A) (A) (A)
                 (A) (A) (A) (A) (A) (A) (A) (A) (A) (A) (A) (A)
                 (A) (A) (A) (A) (A) (A) (A) (A) (A) (A) (A) (A)
                 (A) (A) (A) (A) (A) (A) (A) (A) (A) (A) (A) (A)
                 (A) (A) (A) (A) (A) (A) (A) (A) (A) (A) (A) (A)
                 (A) (A) (A) (A) (A) (A) (A) (A) (A) (A) (A) (A)
                 (A) (A) (A) (A) (A) (A) (A) (A) (A) (A) (A) (A)
                 (A) (A) (A) (A) (A) (A) (A) (A) (A) (A) (A) (A)
                 (A) (A) (A) (A) (A) (A) (A) (A) (A) (A) (A) (A)
                 (A) (A) (A) (A) (A) (A) (A) (A) (A) (A) (A) (A)
                 (A)
 Beta  Orbitals:
       Occupied  (A) (A) (A) (A) (A) (A) (A) (A) (A) (A) (A) (A)
                 (A) (A) (A) (A) (A)
       Virtual   (A) (A) (A) (A) (A) (A) (A) (A) (A) (A) (A) (A)
                 (A) (A) (A) (A) (A) (A) (A) (A) (A) (A) (A) (A)
                 (A) (A) (A) (A) (A) (A) (A) (A) (A) (A) (A) (A)
                 (A) (A) (A) (A) (A) (A) (A) (A) (A) (A) (A) (A)
                 (A) (A) (A) (A) (A) (A) (A) (A) (A) (A) (A) (A)
                 (A) (A) (A) (A) (A) (A) (A) (A) (A) (A) (A) (A)
                 (A) (A) (A) (A) (A) (A) (A) (A) (A) (A) (A) (A)
                 (A) (A) (A) (A) (A) (A) (A) (A) (A) (A) (A) (A)
                 (A) (A) (A) (A) (A) (A) (A) (A) (A) (A) (A) (A)
                 (A) (A) (A) (A) (A) (A) (A) (A) (A) (A) (A) (A)
                 (A) (A) (A) (A) (A) (A) (A) (A) (A) (A) (A) (A)
                 (A) (A) (A) (A) (A) (A) (A) (A) (A) (A) (A) (A)
                 (A) (A) (A) (A) (A) (A) (A) (A) (A) (A) (A) (A)
                 (A) (A) (A) (A) (A) (A) (A) (A) (A) (A) (A) (A)
                 (A) (A) (A) (A) (A) (A) (A) (A) (A) (A) (A) (A)
                 (A) (A)
 The electronic state is 2-A.
 Alpha  occ. eigenvalues --  -19.69249 -19.68740 -10.55452 -10.53956  -1.27406
 Alpha  occ. eigenvalues --   -0.99198  -0.87370  -0.71983  -0.62617  -0.59119
 Alpha  occ. eigenvalues --   -0.53393  -0.52777  -0.49128  -0.45981  -0.43130
 Alpha  occ. eigenvalues --   -0.40619  -0.37823  -0.29808
 Alpha virt. eigenvalues --    0.01374   0.02976   0.04131   0.04737   0.07393
 Alpha virt. eigenvalues --    0.08154   0.08202   0.11190   0.12497   0.13506
 Alpha virt. eigenvalues --    0.16138   0.18760   0.19450   0.20449   0.20828
 Alpha virt. eigenvalues --    0.21957   0.23322   0.24615   0.25322   0.26946
 Alpha virt. eigenvalues --    0.27815   0.30860   0.32618   0.35424   0.36152
 Alpha virt. eigenvalues --    0.40320   0.44031   0.45521   0.46709   0.49685
 Alpha virt. eigenvalues --    0.53552   0.53946   0.56063   0.57592   0.58546
 Alpha virt. eigenvalues --    0.59431   0.60763   0.63190   0.64635   0.69095
 Alpha virt. eigenvalues --    0.70262   0.76243   0.78132   0.80237   0.83370
 Alpha virt. eigenvalues --    0.87336   0.88906   0.90791   0.94336   0.97664
 Alpha virt. eigenvalues --    1.01492   1.04867   1.08306   1.10171   1.12278
 Alpha virt. eigenvalues --    1.14334   1.16959   1.17113   1.18200   1.19343
 Alpha virt. eigenvalues --    1.20777   1.22175   1.24251   1.25177   1.33167
 Alpha virt. eigenvalues --    1.36396   1.37342   1.38135   1.41033   1.43199
 Alpha virt. eigenvalues --    1.43921   1.46203   1.51467   1.54559   1.56636
 Alpha virt. eigenvalues --    1.58479   1.59839   1.60470   1.63060   1.70547
 Alpha virt. eigenvalues --    1.81023   1.87043   1.97884   1.98812   2.21502
 Alpha virt. eigenvalues --    2.24021   2.27635   2.36406   2.41966   2.45615
 Alpha virt. eigenvalues --    2.49967   2.52980   2.57906   2.63805   2.67312
 Alpha virt. eigenvalues --    2.76820   2.81163   2.82144   2.83714   2.95564
 Alpha virt. eigenvalues --    3.02920   3.05578   3.07271   3.09292   3.13915
 Alpha virt. eigenvalues --    3.16962   3.20117   3.29490   3.30997   3.36733
 Alpha virt. eigenvalues --    3.45693   3.46559   3.47469   3.51609   3.53704
 Alpha virt. eigenvalues --    3.54404   3.63648   3.71088   3.76972   3.77976
 Alpha virt. eigenvalues --    3.79342   3.87127   3.88540   3.89702   3.93241
 Alpha virt. eigenvalues --    3.98827   4.03619   4.05375   4.10543   4.12613
 Alpha virt. eigenvalues --    4.17160   4.20493   4.23790   4.24596   4.33822
 Alpha virt. eigenvalues --    4.40044   4.43764   4.49744   4.52302   4.54256
 Alpha virt. eigenvalues --    4.60613   4.62123   4.64688   4.69237   4.71112
 Alpha virt. eigenvalues --    4.76037   4.91009   5.10351   5.12193   5.14116
 Alpha virt. eigenvalues --    5.17207   5.19062   5.23056   5.32335   5.37109
 Alpha virt. eigenvalues --    5.40741   5.42158   5.49938   5.54602   5.60933
 Alpha virt. eigenvalues --    5.62555   5.63817   6.09296   6.11326   6.38602
 Alpha virt. eigenvalues --    6.82385   6.84338   6.89221   6.90605   6.97566
 Alpha virt. eigenvalues --    7.10694   7.26200   7.28055   7.47036   7.49898
 Alpha virt. eigenvalues --    7.79523   7.91110  24.22615  24.44361  49.98869
 Alpha virt. eigenvalues --   50.02659
  Beta  occ. eigenvalues --  -19.69067 -19.67795 -10.54961 -10.53978  -1.25700
  Beta  occ. eigenvalues --   -0.96697  -0.86074  -0.70384  -0.61205  -0.55675
  Beta  occ. eigenvalues --   -0.52608  -0.51193  -0.46911  -0.45181  -0.42662
  Beta  occ. eigenvalues --   -0.36954  -0.35784
  Beta virt. eigenvalues --   -0.08159   0.01441   0.02988   0.04266   0.04836
  Beta virt. eigenvalues --    0.07512   0.08280   0.08301   0.11450   0.12703
  Beta virt. eigenvalues --    0.13558   0.16266   0.18903   0.19776   0.20574
  Beta virt. eigenvalues --    0.21012   0.22300   0.23582   0.24832   0.25666
  Beta virt. eigenvalues --    0.27583   0.28026   0.31042   0.33683   0.35626
  Beta virt. eigenvalues --    0.37514   0.40406   0.44144   0.45938   0.47525
  Beta virt. eigenvalues --    0.49859   0.54067   0.54114   0.57117   0.58206
  Beta virt. eigenvalues --    0.59440   0.59756   0.61115   0.63702   0.65272
  Beta virt. eigenvalues --    0.69259   0.70198   0.76156   0.78239   0.80308
  Beta virt. eigenvalues --    0.83526   0.87389   0.89148   0.91079   0.94439
  Beta virt. eigenvalues --    0.98596   1.01847   1.05394   1.08375   1.10903
  Beta virt. eigenvalues --    1.12706   1.14632   1.17242   1.17411   1.18423
  Beta virt. eigenvalues --    1.19321   1.20792   1.22604   1.24653   1.25907
  Beta virt. eigenvalues --    1.34269   1.36930   1.37780   1.38322   1.41208
  Beta virt. eigenvalues --    1.43292   1.44512   1.46467   1.51979   1.55386
  Beta virt. eigenvalues --    1.56921   1.59187   1.60393   1.60757   1.63216
  Beta virt. eigenvalues --    1.71105   1.81254   1.89273   1.98727   1.99517
  Beta virt. eigenvalues --    2.21603   2.24755   2.27581   2.37264   2.42386
  Beta virt. eigenvalues --    2.46679   2.49845   2.53351   2.58518   2.64573
  Beta virt. eigenvalues --    2.67033   2.77137   2.82839   2.83172   2.85402
  Beta virt. eigenvalues --    2.96398   3.04440   3.07288   3.08650   3.10143
  Beta virt. eigenvalues --    3.15025   3.18175   3.21597   3.30595   3.32901
  Beta virt. eigenvalues --    3.38529   3.47369   3.49756   3.51296   3.53994
  Beta virt. eigenvalues --    3.55798   3.56410   3.66305   3.71256   3.77381
  Beta virt. eigenvalues --    3.79145   3.80563   3.88879   3.89291   3.90420
  Beta virt. eigenvalues --    3.94442   4.00073   4.04369   4.06738   4.11836
  Beta virt. eigenvalues --    4.14083   4.17833   4.21583   4.24650   4.25114
  Beta virt. eigenvalues --    4.35539   4.40425   4.44834   4.50887   4.52970
  Beta virt. eigenvalues --    4.56052   4.60723   4.63521   4.65224   4.71063
  Beta virt. eigenvalues --    4.72544   4.76449   4.91266   5.11435   5.13280
  Beta virt. eigenvalues --    5.15016   5.17699   5.19338   5.23746   5.33238
  Beta virt. eigenvalues --    5.37804   5.41928   5.44775   5.52425   5.55104
  Beta virt. eigenvalues --    5.60806   5.63096   5.64140   6.10036   6.11786
  Beta virt. eigenvalues --    6.39480   6.83116   6.85926   6.89501   6.92201
  Beta virt. eigenvalues --    7.01133   7.11011   7.27144   7.30220   7.47034
  Beta virt. eigenvalues --    7.51732   7.81825   7.91315  24.23324  24.44827
  Beta virt. eigenvalues --   49.98557  50.02226
          Condensed to atoms (all electrons):
              1          2          3          4          5          6
     1  C    5.419677   0.065096   0.314245   0.387960   0.397293  -0.051664
[...]
 Vib (Bot)    2  0.161948D+01          0.209375          0.482103
 Vib (Bot)    3  0.131364D+01          0.118476          0.272802
 Vib (Bot)    4  0.705486D+00         -0.151512         -0.348869
 Vib (Bot)    5  0.473411D+00         -0.324761         -0.747790
 Vib (Bot)    6  0.321648D+00         -0.492619         -1.134297
 Vib (Bot)    7  0.268715D+00         -0.570707         -1.314103
 Vib (V=0)       0.676887D+02          1.830516          4.214919
 Vib (V=0)    1  0.803417D+01          0.904941          2.083704
 Vib (V=0)    2  0.219491D+01          0.341416          0.786139
 Vib (V=0)    3  0.190558D+01          0.280027          0.644785
 Vib (V=0)    4  0.136470D+01          0.135038          0.310936
 Vib (V=0)    5  0.118856D+01          0.075022          0.172745
 Vib (V=0)    6  0.109452D+01          0.039225          0.090319
 Vib (V=0)    7  0.106763D+01          0.028422          0.065445
 Electronic      0.200000D+01          0.301030          0.693147
 Translational   0.196756D+08          7.293927         16.794888
 Rotational      0.711166D+05          4.851971         11.172077
 ***** Axes restored to original set *****
 -------------------------------------------------------------------
 Center     Atomic                   Forces (Hartrees/Bohr)
 Number     Number              X              Y              Z
 -------------------------------------------------------------------
      1        6           0.000001556    0.000002552   -0.000003747
      2        6           0.000001644   -0.000000542   -0.000004379
      3        1          -0.000002322   -0.000000127    0.000004139
      4        1          -0.000005034    0.000002582   -0.000000209
      5        1          -0.000002159    0.000001577   -0.000002001
      6        1           0.000005215    0.000000214   -0.000002022
      7        1           0.000000852   -0.000000194   -0.000001530
      8        1           0.000000239    0.000004627   -0.000006239
      9        8           0.000002408   -0.000004855    0.000002689
     10        8          -0.000003929   -0.000003232    0.000006070
     11        1           0.000001529   -0.000002601    0.000007229
 -------------------------------------------------------------------
 Cartesian Forces:  Max     0.000007229 RMS     0.000003332

 GradGradGradGradGradGradGradGradGradGradGradGradGradGradGradGradGradGrad
 Berny optimization.
 Internal  Forces:  Max     0.000003866 RMS     0.000001651
 Search for a saddle point.
 Step number   1 out of a maximum of    2
 All quantities printed in internal units (Hartrees-Bohrs-Radians)
 Swaping is turned off.
 Second derivative matrix not updated -- analytic derivatives used.
 ITU=  0
     Eigenvalues ---   -0.06880   0.00010   0.00107   0.00341   0.01755
     Eigenvalues ---    0.02511   0.03191   0.04307   0.04419   0.04896
     Eigenvalues ---    0.07525   0.09098   0.10385   0.11950   0.14370
     Eigenvalues ---    0.15899   0.18740   0.19487   0.22892   0.31567
     Eigenvalues ---    0.33196   0.33885   0.34767   0.34959   0.35323
     Eigenvalues ---    0.41650   0.52358
 Eigenvectors required to have negative eigenvalues:
                          R8        R2        R9        D5        D7
   1                    0.69714  -0.66313  -0.12584  -0.08208   0.07971
                          D6        D9        D4        D8        D14
   1                   -0.07476   0.07100  -0.06604   0.06367  -0.06030
 Angle between quadratic step and forces=  75.63 degrees.
 Linear search not attempted -- option 19 set.
 Iteration  1 RMS(Cart)=  0.00040279 RMS(Int)=  0.00000020
 Iteration  2 RMS(Cart)=  0.00000033 RMS(Int)=  0.00000000
 Variable       Old X    -DE/DX   Delta X   Delta X   Delta X     New X
                                 (Linear)    (Quad)   (Total)
    R1        2.83417   0.00000   0.00000   0.00001   0.00001   2.83418
    R2        2.52719   0.00000   0.00000   0.00001   0.00001   2.52720
    R3        2.05267   0.00000   0.00000   0.00000   0.00000   2.05267
    R4        2.05309   0.00000   0.00000   0.00000   0.00000   2.05309
    R5        2.06005   0.00000   0.00000   0.00000   0.00000   2.06004
    R6        2.05919   0.00000   0.00000   0.00000   0.00000   2.05919
    R7        2.06805   0.00000   0.00000   0.00000   0.00000   2.06805
    R8        2.22151   0.00000   0.00000   0.00003   0.00003   2.22155
    R9        2.61685   0.00000   0.00000   0.00000   0.00000   2.61686
   R10        1.82280   0.00000   0.00000   0.00000   0.00000   1.82279
    A1        1.83544   0.00000   0.00000   0.00005   0.00005   1.83549
    A2        2.02444   0.00000   0.00000   0.00000   0.00000   2.02444
    A3        2.03014   0.00000   0.00000   0.00000   0.00000   2.03013
    A4        1.76987   0.00000   0.00000  -0.00001  -0.00001   1.76986
    A5        1.78538   0.00000   0.00000  -0.00001  -0.00001   1.78536
    A6        1.97209   0.00000   0.00000  -0.00002  -0.00002   1.97208
    A7        1.94474   0.00000   0.00000   0.00001   0.00001   1.94476
    A8        1.93927   0.00000   0.00000   0.00003   0.00003   1.93930
    A9        1.93352   0.00000   0.00000  -0.00003  -0.00003   1.93349
   A10        1.89457   0.00000   0.00000  -0.00002  -0.00002   1.89455
   A11        1.87310   0.00000   0.00000   0.00000   0.00000   1.87310
   A12        1.87591   0.00000   0.00000   0.00001   0.00001   1.87592
   A13        3.00284   0.00000   0.00000   0.00011   0.00011   3.00296
   A14        1.80250   0.00000   0.00000  -0.00003  -0.00003   1.80247
   A15        1.81849   0.00000   0.00000   0.00000   0.00000   1.81849
    D1       -1.12217   0.00000   0.00000  -0.00017  -0.00017  -1.12234
    D2        0.99298   0.00000   0.00000  -0.00017  -0.00017   0.99282
    D3        3.07697   0.00000   0.00000  -0.00016  -0.00016   3.07681
    D4       -3.06132   0.00000   0.00000  -0.00019  -0.00019  -3.06151
    D5       -0.94616   0.00000   0.00000  -0.00019  -0.00019  -0.94635
    D6        1.13782   0.00000   0.00000  -0.00018  -0.00018   1.13765
    D7        0.83861   0.00000   0.00000  -0.00016  -0.00016   0.83845
    D8        2.95377   0.00000   0.00000  -0.00015  -0.00015   2.95361
    D9       -1.24543   0.00000   0.00000  -0.00015  -0.00015  -1.24558
   D10       -0.12517   0.00000   0.00000  -0.00055  -0.00055  -0.12572
   D11        1.98999   0.00000   0.00000  -0.00053  -0.00053   1.98946
   D12       -2.25361   0.00000   0.00000  -0.00056  -0.00056  -2.25417
   D13       -0.40763   0.00000   0.00000   0.00149   0.00149  -0.40613
   D14        1.71247   0.00000   0.00000   0.00018   0.00018   1.71265
         Item               Value     Threshold  Converged?
 Maximum Force            0.000004     0.000450     YES
 RMS     Force            0.000002     0.000300     YES
 Maximum Displacement     0.001255     0.001800     YES
 RMS     Displacement     0.000403     0.001200     YES
 Predicted change in Energy=-2.370265D-09
 Optimization completed.
    -- Stationary point found.
                           ----------------------------
                           !   Optimized Parameters   !
                           ! (Angstroms and Degrees)  !
 --------------------------                            --------------------------
 ! Name  Definition              Value          Derivative Info.                !
 --------------------------------------------------------------------------------
 ! R1    R(1,2)                  1.4998         -DE/DX =    0.0                 !
 ! R2    R(1,3)                  1.3373         -DE/DX =    0.0                 !
 ! R3    R(1,4)                  1.0862         -DE/DX =    0.0                 !
 ! R4    R(1,5)                  1.0865         -DE/DX =    0.0                 !
 ! R5    R(2,6)                  1.0901         -DE/DX =    0.0                 !
 ! R6    R(2,7)                  1.0897         -DE/DX =    0.0                 !
 ! R7    R(2,8)                  1.0944         -DE/DX =    0.0                 !
 ! R8    R(3,10)                 1.1756         -DE/DX =    0.0                 !
 ! R9    R(9,10)                 1.3848         -DE/DX =    0.0                 !
 ! R10   R(9,11)                 0.9646         -DE/DX =    0.0                 !
 ! A1    A(2,1,3)              105.163          -DE/DX =    0.0                 !
 ! A2    A(2,1,4)              115.9921         -DE/DX =    0.0                 !
 ! A3    A(2,1,5)              116.3182         -DE/DX =    0.0                 !
 ! A4    A(3,1,4)              101.406          -DE/DX =    0.0                 !
 ! A5    A(3,1,5)              102.2946         -DE/DX =    0.0                 !
 ! A6    A(4,1,5)              112.9926         -DE/DX =    0.0                 !
 ! A7    A(1,2,6)              111.4257         -DE/DX =    0.0                 !
 ! A8    A(1,2,7)              111.112          -DE/DX =    0.0                 !
 ! A9    A(1,2,8)              110.7826         -DE/DX =    0.0                 !
 ! A10   A(6,2,7)              108.5508         -DE/DX =    0.0                 !
 ! A11   A(6,2,8)              107.3208         -DE/DX =    0.0                 !
 ! A12   A(7,2,8)              107.4817         -DE/DX =    0.0                 !
 ! A13   A(1,3,10)             172.0502         -DE/DX =    0.0                 !
 ! A14   A(10,9,11)            103.2756         -DE/DX =    0.0                 !
 ! A15   A(3,10,9)             104.1919         -DE/DX =    0.0                 !
 ! D1    D(3,1,2,6)            -64.2956         -DE/DX =    0.0                 !
 ! D2    D(3,1,2,7)             56.8938         -DE/DX =    0.0                 !
 ! D3    D(3,1,2,8)            176.2975         -DE/DX =    0.0                 !
 ! D4    D(4,1,2,6)           -175.4005         -DE/DX =    0.0                 !
 ! D5    D(4,1,2,7)            -54.2112         -DE/DX =    0.0                 !
 ! D6    D(4,1,2,8)             65.1926         -DE/DX =    0.0                 !
 ! D7    D(5,1,2,6)             48.049          -DE/DX =    0.0                 !
 ! D8    D(5,1,2,7)            169.2383         -DE/DX =    0.0                 !
 ! D9    D(5,1,2,8)            -71.3579         -DE/DX =    0.0                 !
 ! D10   D(2,1,3,10)            -7.1718         -DE/DX =    0.0                 !
 ! D11   D(4,1,3,10)           114.018          -DE/DX =    0.0                 !
 ! D12   D(5,1,3,10)          -129.1226         -DE/DX =    0.0                 !
 ! D13   D(1,3,10,9)           -23.3552         -DE/DX =    0.0                 !
 ! D14   D(11,9,10,3)           98.1173         -DE/DX =    0.0                 !
 --------------------------------------------------------------------------------
 GradGradGradGradGradGradGradGradGradGradGradGradGradGradGradGradGradGrad

 1\1\GINC-COMPUTE-3-046\Freq\UM062X\6-311+G(2df,2p)\C2H7O2(2)\ROOT\20-S
 ep-2016\0\\#N Geom=AllCheck Guess=TCheck SCRF=Check GenChk UM062X/6-31
 1+G(2df,2p) Freq\\CC+[O]O_C[CH2]+OO\\0,2\C,1.196493,0.751197,-0.12859\
 C,1.568492,-0.68531,0.089117\H,-0.129385,0.798533,0.039526\H,1.297435,
 1.120269,-1.145193\H,1.549588,1.458484,0.616691\H,1.36367,-0.998956,1.
 112863\H,1.022082,-1.339477,-0.589776\H,2.636372,-0.841639,-0.092068\O
 ,-1.555784,-0.61185,-0.232547\O,-1.288218,0.677525,0.195858\H,-1.57766
 ,-1.11794,0.588314\\Version=EM64L-G09RevB.01\State=2-A\HF=-230.6687525
 \S2=0.759925\S2-1=0.\S2A=0.75005\RMSD=9.499e-10\RMSF=3.332e-06\ZeroPoi
 nt=0.0854788\Thermal=0.0919713\Dipole=0.7738246,-0.4442531,0.4173298\D
 ipoleDeriv=0.9686335,0.1079488,-0.0382167,-0.2154057,0.0763792,0.01301
 19,-0.1118469,-0.0141657,0.0869229,-0.2822413,0.0545362,-0.0004552,0.0
 278486,-0.0552253,-0.0104694,0.0442297,-0.0276166,0.0285985,-1.072654,
 -0.1758635,0.0746469,-0.1403127,0.0754934,-0.0102779,0.1633244,-0.0018
 118,0.1425273,-0.0725896,-0.0369566,0.032413,0.0163729,0.0052217,0.032
 8939,-0.0118397,0.0598898,-0.0520934,-0.0852012,-0.0671357,-0.0372776,
 0.0151068,-0.0318719,-0.0409784,0.0204661,-0.0547724,-0.0044228,0.0840
 711,-0.0191442,0.0478198,0.0181335,0.0149456,0.0372536,0.0192501,0.063
 7747,-0.0903785,0.0784491,-0.0582963,-0.0522209,-0.005221,-0.006862,-0
 .0351247,-0.0517808,-0.038667,0.0114753,-0.0569049,0.0425509,0.0247704
 ,0.1233136,0.0510956,0.0051883,0.0031966,0.0118841,0.0840444,-0.451799
 2,0.0066136,0.0186918,-0.8419517,-0.4825014,-0.0304827,-0.1548788,-0.0
 356766,-0.1084942,0.5440625,0.1469995,-0.0434049,0.9746846,0.1211705,0
 .0353654,0.1898045,0.0448383,-0.2752674,0.3461741,-0.0012525,-0.026766
 6,0.027431,0.2321548,0.0036201,-0.1099253,-0.0076769,0.1770878\Polar=6
 5.4722832,3.970672,42.4543257,-1.6021003,-0.5052557,33.9984338\PG=C01 
 [X(C2H7O2)]\NImag=1\\0.18083934,0.03293263,0.52237541,0.05437617,0.010
 57227,0.58804519,-0.05717016,0.03737983,-0.01132910,0.52456446,0.02983
 429,-0.21568202,0.02099725,0.02345972,0.49266259,-0.01015908,0.0214474
 2,-0.08721511,0.00379462,0.00859196,0.57111436,0.11154501,-0.01378567,
 -0.01629281,-0.02884502,0.00728619,0.00333732,-0.10846583,0.01435206,-
 0.02421715,-0.00261196,0.01246769,-0.00405012,-0.00133165,-0.01353888,
 0.07217655,-0.01678518,0.00081666,-0.01969790,0.00105858,-0.00036518,-
 0.00060173,0.01548353,0.01122632,0.03884945,-0.02723852,-0.01378541,0.
 03310842,0.00242430,0.00378816,-0.01139497,-0.01898508,-0.00583838,0.0
 1533478,0.02990839,-0.00914337,-0.08212399,0.08398066,-0.00479222,-0.0
 0664726,0.02895366,0.00068710,-0.00004999,0.00027765,0.00883035,0.0843
 0069,0.02196813,0.08517424,-0.29828538,0.00117077,-0.00016039,-0.00016
 200,-0.00108398,0.00097845,-0.00382799,-0.02675134,-0.09426769,0.31395
 505,-0.05807282,-0.06703529,-0.07643673,0.00621583,0.00896451,0.008926
 30,-0.02028021,-0.01070092,-0.00826615,0.00373718,0.00296133,0.0041534
 0,0.06089148,-0.05880505,-0.16500030,-0.12174310,-0.01238200,-0.015479
 06,-0.02035863,0.00218228,-0.00031783,-0.00101850,0.00367147,0.0086048
 8,0.00762247,0.06424398,0.17575375,-0.06769556,-0.12135630,-0.18478579
 ,0.00169522,0.00396752,0.00564259,0.00567973,0.00091901,-0.00071970,-0
 .01112886,-0.01833168,-0.01476135,0.07399685,0.13319283,0.19151915,0.0
 0001536,0.00380813,-0.01008484,-0.05556991,-0.01654586,0.04756860,0.00
 106788,0.00012168,-0.00067538,0.00070424,0.00213308,-0.00022325,-0.000
 17536,-0.00039178,0.00061131,0.05665556,-0.00562934,-0.00938050,0.0327
 2929,-0.01591344,-0.06742878,0.06694997,-0.00060741,0.00013712,0.00045
 908,0.00218113,-0.00591320,0.00012602,-0.00046439,0.00135930,-0.000700
 27,0.01407548,0.07427358,0.00006796,0.00189375,-0.00287634,0.04755966,
 0.06780608,-0.28316197,-0.00017278,0.00000352,-0.00010555,0.00050746,0
 .00048315,0.00163347,-0.00054929,0.00040457,0.00081717,-0.05250441,-0.
 07713888,0.30551328,0.00428055,0.00657360,0.00741634,-0.11223234,-0.08
 224719,-0.08593154,0.00137153,0.00051041,0.00038518,0.00026164,-0.0006
 8136,-0.00017738,-0.00044935,0.00255505,0.00000148,0.00319624,0.005830
 26,0.00497935,0.12106165,-0.01487892,-0.02078129,-0.02194429,-0.081244
 99,-0.13884952,-0.09691564,-0.00056097,-0.00017957,-0.00034024,0.00037
 445,0.00123864,0.00054921,0.00188676,-0.00525338,0.00199795,0.00625596
 ,0.00596122,0.00569159,0.08656526,0.15514592,0.00430428,0.00159799,0.0
 0444974,-0.08507810,-0.09643586,-0.15514193,0.00005521,-0.00007101,0.0
 0013381,0.00090730,-0.00045747,0.00047297,-0.00110991,0.00140914,0.001
 24967,-0.01582191,-0.01802549,-0.01706912,0.09387287,0.10768201,0.1629
 3968,-0.00873411,0.00597763,0.00013900,-0.28916926,0.02870997,0.043774
 47,0.00349237,0.00140702,-0.00050198,0.00062084,0.00030446,-0.00015348
 ,0.00012835,0.00037252,-0.00007594,-0.00573003,0.00022539,0.00070105,-
 0.01584836,0.00205160,0.00342344,0.31663742,0.02900475,-0.00940621,-0.
 00410938,0.03676459,-0.04483736,-0.00648826,0.00489079,-0.00220964,-0.
 00012964,-0.00108153,0.00078971,0.00012807,-0.00120372,0.00040858,0.00
 006482,-0.00886725,0.00061246,0.00090401,-0.01877583,0.00257689,0.0041
 8820,-0.03837342,0.05253730,-0.00417676,0.00012514,0.00015262,0.042232
 81,-0.00460670,-0.05118054,-0.00136152,0.00020274,0.00057166,0.0005914
 5,-0.00027165,0.00016288,-0.00016868,-0.00009417,0.00011922,0.03062271
 ,-0.00418134,-0.00499628,-0.02048199,0.00319848,0.00357173,-0.04721466
 ,0.00549984,0.05173666,0.00077259,0.00002707,-0.00317633,-0.00041506,-
 0.00026388,0.00093749,-0.00485234,-0.02653212,-0.01150151,0.00013111,-
 0.00028803,0.00028838,-0.00115079,0.00012298,0.00074058,0.00033091,0.0
 0016089,0.00010967,-0.00101348,-0.00061069,-0.00102972,-0.00086569,-0.
 00065398,-0.00012247,0.05380149,0.03859069,-0.00629393,-0.00505286,-0.
 00654183,-0.00131590,0.00067381,-0.06604305,-0.02066590,0.00188332,-0.
 00559125,0.00024722,-0.00021931,-0.00526125,0.00111401,0.00200576,-0.0
 0002954,0.00050254,-0.00093896,0.00035054,0.00152608,0.00110479,0.0009
 7058,0.00374802,-0.00040374,0.08078889,0.42647389,0.01011230,-0.001699
 07,-0.00108921,-0.00139418,-0.00034609,0.00033053,-0.01884119,0.000060
 93,0.00228237,-0.00160235,0.00009315,-0.00009678,-0.00127957,0.0003360
 6,0.00045991,0.00015254,0.00020738,-0.00000204,-0.00026691,0.00046264,
 -0.00001016,0.00007458,0.00072264,-0.00012195,0.01672076,-0.13170740,0
 .48951110,-0.14840592,0.00933410,0.02098575,0.01010768,-0.00271336,-0.
 00104179,0.06639758,0.03112007,0.00301848,0.00912382,-0.00026357,0.001
 00016,0.00922296,-0.00169864,-0.00387903,0.00003386,0.00002864,0.00003
 558,-0.00026794,-0.00007994,-0.00024029,-0.00093098,-0.00220795,0.0003
 2803,-0.03997036,-0.02868069,0.00093329,0.09557760,-0.05430486,0.00998
 136,0.00698705,0.01054797,0.00148371,-0.00168072,0.07608206,-0.0192105
 6,-0.01311060,0.00715254,-0.00035009,0.00009141,0.00631393,-0.00104385
 ,-0.00170783,-0.00052821,-0.00028680,0.00078271,-0.00058119,-0.0014487
 3,-0.00070667,-0.00161349,-0.00403219,0.00056460,-0.04182877,-0.264982
 28,-0.04424246,0.00419464,0.32659100,0.00537034,0.00195461,0.00184017,
 0.00089443,0.00066932,-0.00020599,0.01705655,-0.00809934,-0.01724709,0
 .00091303,-0.00046746,0.00098877,0.00126348,0.00026003,0.00023806,0.00
 037868,-0.00060628,0.00036050,-0.00017896,-0.00046009,-0.00028219,-0.0
 0016375,-0.00097971,0.00019374,-0.00939365,-0.09317533,-0.06969403,-0.
 02015626,0.07541394,0.06370911,0.00216867,-0.00142662,0.00129412,0.000
 08947,-0.00027255,0.00018858,-0.00244587,-0.00336861,0.00244964,-0.000
 68792,0.00025225,-0.00019142,-0.00006727,0.00012918,0.00005420,-0.0005
 2874,0.00011279,-0.00073423,-0.00036014,0.00024150,0.00071684,0.000399
 46,0.00050355,-0.00024890,-0.00676838,-0.00855308,-0.00460925,-0.00088
 829,-0.00543462,0.00401609,0.00908902,-0.00195288,0.00052861,0.0001950
 5,0.00025469,0.00014370,0.00015809,0.00340757,-0.00141289,0.00030114,0
 .00029848,-0.00009662,-0.00002247,0.00029507,-0.00014611,-0.00005182,-
 0.00003169,0.00016305,0.00010848,-0.00009953,0.00006372,-0.00028564,-0
 .00003225,-0.00018756,-0.00003320,-0.01092236,-0.14035375,0.17611222,-
 0.00903330,-0.04670157,0.02549031,0.01781621,0.18799942,0.00261741,-0.
 00052670,-0.00053799,-0.00060471,-0.00011792,0.00058181,-0.00386005,-0
 .00127702,0.00036268,-0.00048491,0.00000767,-0.00007964,-0.00052971,-0
 .00001069,0.00022108,-0.00002406,0.00018053,-0.00011311,0.00038154,0.0
 0007838,-0.00031419,-0.00000273,0.00019941,-0.00020974,0.00642681,0.22
 582992,-0.42156973,-0.00098392,-0.02239142,0.02009893,-0.00293566,-0.2
 0197217,0.40155989\\-0.00000156,-0.00000255,0.00000375,-0.00000164,0.0
 0000054,0.00000438,0.00000232,0.00000013,-0.00000414,0.00000503,-0.000
 00258,0.00000021,0.00000216,-0.00000158,0.00000200,-0.00000521,-0.0000
 0021,0.00000202,-0.00000085,0.00000019,0.00000153,-0.00000024,-0.00000
 463,0.00000624,-0.00000241,0.00000485,-0.00000269,0.00000393,0.0000032
 3,-0.00000607,-0.00000153,0.00000260,-0.00000723\\\@


 THERE'S NOTHING SO GREAT AS THE GREAT OUTDOORS.

                                       -- ZIGGY
 Job cpu time:  0 days  0 hours 59 minutes 37.0 seconds.
 File lengths (MBytes):  RWF=    118 Int=      0 D2E=      0 Chk=     32 Scr=      1
 Normal termination of Gaussian 09 at Tue Sep 20 12:53:12 2016.
