 Entering Gaussian System, Link 0=g16
 Input=../methaneabstraction.com
 Output=../methaneabstraction.log
 Initial command:
 /shared/centos7/gaussian/g16/l1.exe "/scratch/dinius.ab/QMscratch/Gau-14524.inp" -scrdir="/scratch/dinius.ab/QMscratch/"
 Entering Link 1 = /shared/centos7/gaussian/g16/l1.exe PID=     14525.
  
 Copyright (c) 1988,1990,1992,1993,1995,1998,2003,2009,2016,
            Gaussian, Inc.  All Rights Reserved.
  
 This is part of the Gaussian(R) 16 program.  It is based on
 the Gaussian(R) 09 system (copyright 2009, Gaussian, Inc.),
 the Gaussian(R) 03 system (copyright 2003, Gaussian, Inc.),
 the Gaussian(R) 98 system (copyright 1998, Gaussian, Inc.),
 the Gaussian(R) 94 system (copyright 1995, Gaussian, Inc.),
 the Gaussian 92(TM) system (copyright 1992, Gaussian, Inc.),
 the Gaussian 90(TM) system (copyright 1990, Gaussian, Inc.),
 the Gaussian 88(TM) system (copyright 1988, Gaussian, Inc.),
 the Gaussian 86(TM) system (copyright 1986, Carnegie Mellon
 University), and the Gaussian 82(TM) system (copyright 1983,
 Carnegie Mellon University). Gaussian is a federally registered
 trademark of Gaussian, Inc.
  
 This software contains proprietary and confidential information,
 including trade secrets, belonging to Gaussian, Inc.
  
 This software is provided under written license and may be
 used, copied, transmitted, or stored only in accord with that
 written license.
  
 The following legend is applicable only to US Government
 contracts under FAR:
  
                    RESTRICTED RIGHTS LEGEND
  
 Use, reproduction and disclosure by the US Government is
 subject to restrictions as set forth in subparagraphs (a)
 and (c) of the Commercial Computer Software - Restricted
 Rights clause in FAR 52.227-19.
  
 Gaussian, Inc.
 340 Quinnipiac St., Bldg. 40, Wallingford CT 06492
  
  
 ---------------------------------------------------------------
 Warning -- This program may not be used in any manner that
 competes with the business of Gaussian, Inc. or will provide
 assistance to any competitor of Gaussian, Inc.  The licensee
 of this program is prohibited from giving any competitor of
 Gaussian, Inc. access to this program.  By using this program,
 the user acknowledges that Gaussian, Inc. is engaged in the
 business of creating and licensing software in the field of
 computational chemistry and represents and warrants to the
 licensee that it is not a competitor of Gaussian, Inc. and that
 it will not use this program in any manner prohibited above.
 ---------------------------------------------------------------
  

 Cite this work as:
 Gaussian 16, Revision A.03,
 M. J. Frisch, G. W. Trucks, H. B. Schlegel, G. E. Scuseria, 
 M. A. Robb, J. R. Cheeseman, G. Scalmani, V. Barone, 
 G. A. Petersson, H. Nakatsuji, X. Li, M. Caricato, A. V. Marenich, 
 J. Bloino, B. G. Janesko, R. Gomperts, B. Mennucci, H. P. Hratchian, 
 J. V. Ortiz, A. F. Izmaylov, J. L. Sonnenberg, D. Williams-Young, 
 F. Ding, F. Lipparini, F. Egidi, J. Goings, B. Peng, A. Petrone, 
 T. Henderson, D. Ranasinghe, V. G. Zakrzewski, J. Gao, N. Rega, 
 G. Zheng, W. Liang, M. Hada, M. Ehara, K. Toyota, R. Fukuda, 
 J. Hasegawa, M. Ishida, T. Nakajima, Y. Honda, O. Kitao, H. Nakai, 
 T. Vreven, K. Throssell, J. A. Montgomery, Jr., J. E. Peralta, 
 F. Ogliaro, M. J. Bearpark, J. J. Heyd, E. N. Brothers, K. N. Kudin, 
 V. N. Staroverov, T. A. Keith, R. Kobayashi, J. Normand, 
 K. Raghavachari, A. P. Rendell, J. C. Burant, S. S. Iyengar, 
 J. Tomasi, M. Cossi, J. M. Millam, M. Klene, C. Adamo, R. Cammi, 
 J. W. Ochterski, R. L. Martin, K. Morokuma, O. Farkas, 
 J. B. Foresman, and D. J. Fox, Gaussian, Inc., Wallingford CT, 2016.
 
 ******************************************
 Gaussian 16:  EM64L-G16RevA.03 25-Dec-2016
                15-Oct-2018 
 ******************************************
 %NProcShared=2
 Will use up to    2 processors via shared memory.
 ------------------------------------
 #n B3LYP/6-31G(d) Opt=(TS, ModRedun)
 ------------------------------------
 1/5=1,18=120,26=3,38=1/1,3;
 2/9=110,12=2,17=6,18=5,40=1/2;
 3/5=1,6=6,7=1,11=2,25=1,30=1,71=1,74=-5/1,2,3;
 4//1;
 5/5=2,38=5/2;
 6/7=2,8=2,9=2,10=2,28=1/1;
 7//1,2,3,16;
 1/5=1,18=20,26=3/3(2);
 2/9=110/2;
 99//99;
 2/9=110/2;
 3/5=1,6=6,7=1,11=2,25=1,30=1,71=1,74=-5/1,2,3;
 4/5=5,16=3,69=1/1;
 5/5=2,38=5/2;
 7//1,2,3,16;
 1/5=1,18=20,26=3/3(-5);
 2/9=110/2;
 6/7=2,8=2,9=2,10=2,19=2,28=1/1;
 99/9=1/99;
 -----------
 methane_abs
 -----------
 Symbolic Z-matrix:
 Charge =  0 Multiplicity = 1
 C                    -0.86779   0.27474   0.1764 
 H                    -1.13598   0.34517   1.24102 
 H                     0.2267    0.32888   0.06864 
 H                    -1.33366   1.10581  -0.3739 
 H                    -1.2307   -0.6814   -0.22943 
 O                     1.15056   0.38253  -0.15164 
 O                     1.74957  -0.97141  -0.14051 
 H                     2.45393  -1.01722  -0.77715 
 
 The following ModRedundant input section has been read:
 B       2       6 F                                                           
 

 GradGradGradGradGradGradGradGradGradGradGradGradGradGradGradGradGradGrad
 Berny optimization.
 Initialization pass.
                           ----------------------------
                           !    Initial Parameters    !
                           ! (Angstroms and Degrees)  !
 --------------------------                            --------------------------
 ! Name  Definition              Value          Derivative Info.                !
 --------------------------------------------------------------------------------
 ! R1    R(1,2)                  1.1001         estimate D2E/DX2                !
 ! R2    R(1,3)                  1.1011         estimate D2E/DX2                !
 ! R3    R(1,4)                  1.1002         estimate D2E/DX2                !
 ! R4    R(1,5)                  1.1003         estimate D2E/DX2                !
 ! R5    R(2,6)                  2.6775         Frozen                          !
 ! R6    R(3,6)                  0.9513         estimate D2E/DX2                !
 ! R7    R(6,7)                  1.4806         estimate D2E/DX2                !
 ! R8    R(7,8)                  0.9505         estimate D2E/DX2                !
 ! A1    A(2,1,3)              109.5038         estimate D2E/DX2                !
 ! A2    A(2,1,4)              109.4166         estimate D2E/DX2                !
 ! A3    A(2,1,5)              109.4001         estimate D2E/DX2                !
 ! A4    A(3,1,4)              109.5597         estimate D2E/DX2                !
 ! A5    A(3,1,5)              109.5411         estimate D2E/DX2                !
 ! A6    A(4,1,5)              109.4058         estimate D2E/DX2                !
 ! A7    A(3,6,7)              109.8529         estimate D2E/DX2                !
 ! A8    A(6,7,8)              109.8059         estimate D2E/DX2                !
 ! A9    L(1,3,6,7,-1)         180.669          estimate D2E/DX2                !
 ! A10   L(1,3,6,7,-2)         168.7029         estimate D2E/DX2                !
 ! D1    D(2,1,6,7)             90.8597         estimate D2E/DX2                !
 ! D2    D(4,1,6,7)           -148.395          estimate D2E/DX2                !
 ! D3    D(5,1,6,7)            -30.4579         estimate D2E/DX2                !
 ! D4    D(3,6,7,8)            148.8028         estimate D2E/DX2                !
 --------------------------------------------------------------------------------
 Trust Radius=3.00D-01 FncErr=1.00D-07 GrdErr=1.00D-06 EigMax=2.50D+02 EigMin=1.00D-04
 Number of steps in this run=     32 maximum allowed number of steps=    100.
 Search for a saddle point of order  1.
 GradGradGradGradGradGradGradGradGradGradGradGradGradGradGradGradGradGrad

                          Input orientation:                          
 ---------------------------------------------------------------------
 Center     Atomic      Atomic             Coordinates (Angstroms)
 Number     Number       Type             X           Y           Z
 ---------------------------------------------------------------------
      1          6           0       -0.867790    0.274740    0.176400
      2          1           0       -1.135980    0.345170    1.241020
      3          1           0        0.226700    0.328880    0.068640
      4          1           0       -1.333660    1.105810   -0.373900
      5          1           0       -1.230700   -0.681400   -0.229430
      6          8           0        1.150560    0.382530   -0.151640
      7          8           0        1.749570   -0.971410   -0.140510
      8          1           0        2.453930   -1.017220   -0.777150
 ---------------------------------------------------------------------
                    Distance matrix (angstroms):
                    1          2          3          4          5
     1  C    0.000000
     2  H    1.100137   0.000000
     3  H    1.101114   1.797675   0.000000
     4  H    1.100246   1.796000   1.798384   0.000000
     5  H    1.100275   1.795840   1.798201   1.795993   0.000000
     6  O    2.047673   2.677529   0.951272   2.596899   2.609291
     7  O    2.916144   3.459539   2.013363   3.724999   2.995667
     8  H    3.689477   4.337807   2.736403   4.360700   3.740223
                    6          7          8
     6  O    0.000000
     7  O    1.480571   0.000000
     8  H    2.012296   0.950543   0.000000
 Stoichiometry    CH5O2
 Framework group  C1[X(CH5O2)]
 Deg. of freedom    18
 Full point group                 C1      NOp   1
 Largest Abelian subgroup         C1      NOp   1
 Largest concise Abelian subgroup C1      NOp   1
                         Standard orientation:                         
 ---------------------------------------------------------------------
 Center     Atomic      Atomic             Coordinates (Angstroms)
 Number     Number       Type             X           Y           Z
 ---------------------------------------------------------------------
      1          6           0       -1.550066   -0.189873   -0.017023
      2          1           0       -1.974544   -0.340505    0.986685
      3          1           0       -0.546554    0.254695    0.071142
      4          1           0       -2.202180    0.483935   -0.592586
      5          1           0       -1.479194   -1.159032   -0.533079
      6          8           0        0.316085    0.652240    0.018884
      7          8           0        1.357569   -0.399354    0.058263
      8          1           0        2.113635   -0.122946   -0.447202
 ---------------------------------------------------------------------
 Rotational constants (GHZ):          37.6520419           6.5377794           5.8110261
 Standard basis: 6-31G(d) (6D, 7F)
 The combination of multiplicity 1 and    27 electrons is impossible.
 Error termination via Lnk1e in /shared/centos7/gaussian/g16/l301.exe at Mon Oct 15 17:16:00 2018.
 Job cpu time:       0 days  0 hours  0 minutes  2.8 seconds.
 Elapsed time:       0 days  0 hours  0 minutes  2.7 seconds.
 File lengths (MBytes):  RWF=    272 Int=      0 D2E=      0 Chk=     32 Scr=     32
