 Entering Gaussian System, Link 0=g16
 Input=practice2c.com
 Output=practice2c.log
 Initial command:
 /shared/centos7/gaussian/g16/l1.exe "/scratch/dinius.ab/QMscratch/Gau-25156.inp" -scrdir="/scratch/dinius.ab/QMscratch/"
 Entering Link 1 = /shared/centos7/gaussian/g16/l1.exe PID=     25157.
  
 Copyright (c) 1988,1990,1992,1993,1995,1998,2003,2009,2016,
            Gaussian, Inc.  All Rights Reserved.
  
 This is part of the Gaussian(R) 16 program.  It is based on
 the Gaussian(R) 09 system (copyright 2009, Gaussian, Inc.),
 the Gaussian(R) 03 system (copyright 2003, Gaussian, Inc.),
 the Gaussian(R) 98 system (copyright 1998, Gaussian, Inc.),
 the Gaussian(R) 94 system (copyright 1995, Gaussian, Inc.),
 the Gaussian 92(TM) system (copyright 1992, Gaussian, Inc.),
 the Gaussian 90(TM) system (copyright 1990, Gaussian, Inc.),
 the Gaussian 88(TM) system (copyright 1988, Gaussian, Inc.),
 the Gaussian 86(TM) system (copyright 1986, Carnegie Mellon
 University), and the Gaussian 82(TM) system (copyright 1983,
 Carnegie Mellon University). Gaussian is a federally registered
 trademark of Gaussian, Inc.
  
 This software contains proprietary and confidential information,
 including trade secrets, belonging to Gaussian, Inc.
  
 This software is provided under written license and may be
 used, copied, transmitted, or stored only in accord with that
 written license.
  
 The following legend is applicable only to US Government
 contracts under FAR:
  
                    RESTRICTED RIGHTS LEGEND
  
 Use, reproduction and disclosure by the US Government is
 subject to restrictions as set forth in subparagraphs (a)
 and (c) of the Commercial Computer Software - Restricted
 Rights clause in FAR 52.227-19.
  
 Gaussian, Inc.
 340 Quinnipiac St., Bldg. 40, Wallingford CT 06492
  
  
 ---------------------------------------------------------------
 Warning -- This program may not be used in any manner that
 competes with the business of Gaussian, Inc. or will provide
 assistance to any competitor of Gaussian, Inc.  The licensee
 of this program is prohibited from giving any competitor of
 Gaussian, Inc. access to this program.  By using this program,
 the user acknowledges that Gaussian, Inc. is engaged in the
 business of creating and licensing software in the field of
 computational chemistry and represents and warrants to the
 licensee that it is not a competitor of Gaussian, Inc. and that
 it will not use this program in any manner prohibited above.
 ---------------------------------------------------------------
  

 Cite this work as:
 Gaussian 16, Revision A.03,
 M. J. Frisch, G. W. Trucks, H. B. Schlegel, G. E. Scuseria, 
 M. A. Robb, J. R. Cheeseman, G. Scalmani, V. Barone, 
 G. A. Petersson, H. Nakatsuji, X. Li, M. Caricato, A. V. Marenich, 
 J. Bloino, B. G. Janesko, R. Gomperts, B. Mennucci, H. P. Hratchian, 
 J. V. Ortiz, A. F. Izmaylov, J. L. Sonnenberg, D. Williams-Young, 
 F. Ding, F. Lipparini, F. Egidi, J. Goings, B. Peng, A. Petrone, 
 T. Henderson, D. Ranasinghe, V. G. Zakrzewski, J. Gao, N. Rega, 
 G. Zheng, W. Liang, M. Hada, M. Ehara, K. Toyota, R. Fukuda, 
 J. Hasegawa, M. Ishida, T. Nakajima, Y. Honda, O. Kitao, H. Nakai, 
 T. Vreven, K. Throssell, J. A. Montgomery, Jr., J. E. Peralta, 
 F. Ogliaro, M. J. Bearpark, J. J. Heyd, E. N. Brothers, K. N. Kudin, 
 V. N. Staroverov, T. A. Keith, R. Kobayashi, J. Normand, 
 K. Raghavachari, A. P. Rendell, J. C. Burant, S. S. Iyengar, 
 J. Tomasi, M. Cossi, J. M. Millam, M. Klene, C. Adamo, R. Cammi, 
 J. W. Ochterski, R. L. Martin, K. Morokuma, O. Farkas, 
 J. B. Foresman, and D. J. Fox, Gaussian, Inc., Wallingford CT, 2016.
 
 ******************************************
 Gaussian 16:  EM64L-G16RevA.03 25-Dec-2016
                23-Oct-2018 
 ******************************************
 -------------------------------------------------------------
 #M062x/6-311+g(2df,2p) Opt=(TS,noeigentest,ModRedundant) Test
 -------------------------------------------------------------
 1/5=1,11=1,18=120,26=3,38=1/1,3;
 2/9=110,12=2,17=6,18=5,40=1/2;
 3/5=4,6=6,7=214,11=2,25=1,30=1,71=1,74=-55/1,2,3;
 4//1;
 5/5=2,38=5/2;
 6/7=2,8=2,9=2,10=2,28=1/1;
 7//1,2,3,16;
 1/5=1,11=1,18=20,26=3/3(2);
 2/9=110/2;
 99//99;
 2/9=110/2;
 3/5=4,6=6,7=214,11=2,25=1,30=1,71=1,74=-55/1,2,3;
 4/5=5,16=3,69=1/1;
 5/5=2,38=5/2;
 7//1,2,3,16;
 1/5=1,11=1,18=20,26=3/3(-5);
 2/9=110/2;
 6/7=2,8=2,9=2,10=2,19=2,28=1/1;
 99/9=1/99;
 -----
 Title
 -----
 Symbolic Z-matrix:
 Charge =  0 Multiplicity = 2
 C                    -30.9569  -13.87996  -3.61992 
 C                    -31.43509  -14.14377  -2.38918 
 H                    -29.91561  -13.92334  -3.93871 
 H                    -31.63877  -13.70168  -4.46492 
 O                    -32.79282  -14.2102  -2.09317 
 H                    -30.38317  -14.33655  -2.10742 
 O                    -34.23549  -14.11562  -2.51871 
 H                    -34.22394  -14.51063  -3.52286 
 O                    -32.55801  -13.69882  -5.08436 
 O                    -33.08094  -14.92628  -4.45651 
 H                    -33.09306  -14.54046  -3.39369 
 
 The following ModRedundant input section has been read:
 

 GradGradGradGradGradGradGradGradGradGradGradGradGradGradGradGradGradGrad
 Berny optimization.
 Initialization pass.
                           ----------------------------
                           !    Initial Parameters    !
                           ! (Angstroms and Degrees)  !
 --------------------------                            --------------------------
 ! Name  Definition              Value          Derivative Info.                !
 --------------------------------------------------------------------------------
 ! R1    R(1,2)                  1.3465         estimate D2E/DX2                !
 ! R2    R(1,3)                  1.0899         estimate D2E/DX2                !
 ! R3    R(1,4)                  1.1003         estimate D2E/DX2                !
 ! R4    R(2,5)                  1.3912         estimate D2E/DX2                !
 ! R5    R(2,6)                  1.1059         estimate D2E/DX2                !
 ! R6    R(4,9)                  1.1085         estimate D2E/DX2                !
 ! R7    R(5,7)                  1.5071         estimate D2E/DX2                !
 ! R8    R(7,8)                  1.0791         estimate D2E/DX2                !
 ! R9    R(9,10)                 1.4746         estimate D2E/DX2                !
 ! R10   R(10,11)                1.1307         estimate D2E/DX2                !
 ! A1    A(2,1,3)              126.7899         estimate D2E/DX2                !
 ! A2    A(2,1,4)              120.9041         estimate D2E/DX2                !
 ! A3    A(3,1,4)              111.956          estimate D2E/DX2                !
 ! A4    A(1,2,5)              123.3969         estimate D2E/DX2                !
 ! A5    A(1,2,6)               85.9417         estimate D2E/DX2                !
 ! A6    A(5,2,6)              149.9672         estimate D2E/DX2                !
 ! A7    A(1,4,9)              160.6407         estimate D2E/DX2                !
 ! A8    A(2,5,7)              150.5917         estimate D2E/DX2                !
 ! A9    A(5,7,8)              103.2692         estimate D2E/DX2                !
 ! A10   A(4,9,10)              93.0958         estimate D2E/DX2                !
 ! A11   A(9,10,11)             96.891          estimate D2E/DX2                !
 ! D1    D(3,1,2,5)           -172.6668         estimate D2E/DX2                !
 ! D2    D(3,1,2,6)              0.4509         estimate D2E/DX2                !
 ! D3    D(4,1,2,5)             -0.0252         estimate D2E/DX2                !
 ! D4    D(4,1,2,6)            173.0925         estimate D2E/DX2                !
 ! D5    D(2,1,4,9)            -19.6997         estimate D2E/DX2                !
 ! D6    D(3,1,4,9)            153.9511         estimate D2E/DX2                !
 ! D7    D(1,2,5,7)             -0.5468         estimate D2E/DX2                !
 ! D8    D(6,2,5,7)           -166.7297         estimate D2E/DX2                !
 ! D9    D(1,4,9,10)           -27.7111         estimate D2E/DX2                !
 ! D10   D(2,5,7,8)             35.1214         estimate D2E/DX2                !
 ! D11   D(4,9,10,11)           58.2288         estimate D2E/DX2                !
 --------------------------------------------------------------------------------
 Trust Radius=3.00D-01 FncErr=1.00D-07 GrdErr=1.00D-06 EigMax=2.50D+02 EigMin=1.00D-04
 Number of steps in this run=     42 maximum allowed number of steps=    100.
 Search for a saddle point of order  1.
 GradGradGradGradGradGradGradGradGradGradGradGradGradGradGradGradGradGrad

                          Input orientation:                          
 ---------------------------------------------------------------------
 Center     Atomic      Atomic             Coordinates (Angstroms)
 Number     Number       Type             X           Y           Z
 ---------------------------------------------------------------------
      1          6           0      -30.956900  -13.879960   -3.619920
      2          6           0      -31.435090  -14.143770   -2.389180
      3          1           0      -29.915610  -13.923340   -3.938710
      4          1           0      -31.638770  -13.701680   -4.464920
      5          8           0      -32.792820  -14.210200   -2.093170
      6          1           0      -30.383170  -14.336550   -2.107420
      7          8           0      -34.235490  -14.115620   -2.518710
      8          1           0      -34.223940  -14.510630   -3.522860
      9          8           0      -32.558010  -13.698820   -5.084360
     10          8           0      -33.080940  -14.926280   -4.456510
     11          1           0      -33.093060  -14.540460   -3.393690
 ---------------------------------------------------------------------
                    Distance matrix (angstroms):
                    1          2          3          4          5
     1  C    0.000000
     2  C    1.346470   0.000000
     3  H    1.089860   2.181388   0.000000
     4  H    1.100343   2.132047   1.815299   0.000000
     5  O    2.410524   1.391210   3.430254   2.686191   0.000000
     6  H    1.680862   1.105933   1.934678   2.745432   2.413002
     7  O    3.466605   2.803535   4.551344   3.271396   1.507092
     8  H    3.328771   3.032738   4.368014   2.867923   2.045086
     9  O    2.177372   2.953460   2.888806   1.108475   3.043659
    10  O    2.511218   2.755902   3.360553   1.891975   2.486194
    11  H    2.247358   1.978704   3.282388   1.991493   1.374979
                    6          7          8          9         10
     6  H    0.000000
     7  O    3.880508   0.000000
     8  H    4.096985   1.079112   0.000000
     9  O    3.741497   3.093577   2.423353   0.000000
    10  O    3.625461   2.396920   1.533270   1.474554   0.000000
    11  H    3.006588   1.500408   1.138624   1.962906   1.130748
                   11
    11  H    0.000000
 Stoichiometry    C2H5O4(2)
 Framework group  C1[X(C2H5O4)]
 Deg. of freedom    27
 Full point group                 C1      NOp   1
 Largest Abelian subgroup         C1      NOp   1
 Largest concise Abelian subgroup C1      NOp   1
                         Standard orientation:                         
 ---------------------------------------------------------------------
 Center     Atomic      Atomic             Coordinates (Angstroms)
 Number     Number       Type             X           Y           Z
 ---------------------------------------------------------------------
      1          6           0        1.455052    0.739300   -0.103095
      2          6           0        0.337872    1.465503    0.090606
      3          1           0        2.481640    1.062759    0.068033
      4          1           0        1.397259   -0.330301   -0.354829
      5          8           0       -0.945461    0.937753   -0.009399
      6          1           0        1.016305    2.279911    0.406134
      7          8           0       -1.871318   -0.221777   -0.273225
      8          1           0       -1.332243   -1.065651    0.128966
      9          8           0        0.999303   -1.359213   -0.462940
     10          8           0        0.088127   -1.213434    0.687198
     11          1           0       -0.485711   -0.322174    0.293554
 ---------------------------------------------------------------------
 Rotational constants (GHZ):           4.2545047           3.6325625           2.1753017
 Standard basis: 6-311+G(2df,2p) (5D, 7F)
 There are   279 symmetry adapted cartesian basis functions of A   symmetry.
 There are   249 symmetry adapted basis functions of A   symmetry.
   249 basis functions,   367 primitive gaussians,   279 cartesian basis functions
    25 alpha electrons       24 beta electrons
       nuclear repulsion energy       256.2395369057 Hartrees.
 NAtoms=   11 NActive=   11 NUniq=   11 SFac= 1.00D+00 NAtFMM=   60 NAOKFM=F Big=F
 Integral buffers will be    131072 words long.
 Raffenetti 2 integral format.
 Two-electron integral symmetry is turned on.
 One-electron integrals computed using PRISM.
 NBasis=   249 RedAO= T EigKep=  7.95D-05  NBF=   249
 NBsUse=   249 1.00D-06 EigRej= -1.00D+00 NBFU=   249
 ExpMin= 4.38D-02 ExpMax= 8.59D+03 ExpMxC= 1.30D+03 IAcc=3 IRadAn=         5 AccDes= 0.00D+00
 Harris functional with IExCor= 1009 and IRadAn=       5 diagonalized for initial guess.
 HarFok:  IExCor= 1009 AccDes= 0.00D+00 IRadAn=         5 IDoV= 1 UseB2=F ITyADJ=14
 ICtDFT=  3500011 ScaDFX=  1.000000  1.000000  1.000000  1.000000
 FoFCou: FMM=F IPFlag=           0 FMFlag=      100000 FMFlg1=           0
         NFxFlg=           0 DoJE=T BraDBF=F KetDBF=T FulRan=T
         wScrn=  0.000000 ICntrl=       500 IOpCl=  0 I1Cent=   200000004 NGrid=           0
         NMat0=    1 NMatS0=      1 NMatT0=    0 NMatD0=    1 NMtDS0=    0 NMtDT0=    0
 Petite list used in FoFCou.
 Initial guess <Sx>= 0.0000 <Sy>= 0.0000 <Sz>= 0.5000 <S**2>= 0.7500 S= 0.5000
 Requested convergence on RMS density matrix=1.00D-08 within 128 cycles.
 Requested convergence on MAX density matrix=1.00D-06.
 Requested convergence on             energy=1.00D-06.
 No special actions if energy rises.
 Restarting incremental Fock formation.
 SCF Done:  E(UM062X) =  -379.548961148     A.U. after   22 cycles
            NFock= 22  Conv=0.92D-08     -V/T= 2.0025
 <Sx>= 0.0000 <Sy>= 0.0000 <Sz>= 0.5000 <S**2>= 0.7616 S= 0.5058
 <L.S>= 0.000000000000E+00
 Annihilation of the first spin contaminant:
 S**2 before annihilation     0.7616,   after     0.7501

 **********************************************************************

            Population analysis using the SCF density.

 **********************************************************************

 Orbital symmetries:
 Alpha Orbitals:
       Occupied  (A) (A) (A) (A) (A) (A) (A) (A) (A) (A) (A) (A)
                 (A) (A) (A) (A) (A) (A) (A) (A) (A) (A) (A) (A)
                 (A)
       Virtual   (A) (A) (A) (A) (A) (A) (A) (A) (A) (A) (A) (A)
                 (A) (A) (A) (A) (A) (A) (A) (A) (A) (A) (A) (A)
                 (A) (A) (A) (A) (A) (A) (A) (A) (A) (A) (A) (A)
                 (A) (A) (A) (A) (A) (A) (A) (A) (A) (A) (A) (A)
                 (A) (A) (A) (A) (A) (A) (A) (A) (A) (A) (A) (A)
                 (A) (A) (A) (A) (A) (A) (A) (A) (A) (A) (A) (A)
                 (A) (A) (A) (A) (A) (A) (A) (A) (A) (A) (A) (A)
                 (A) (A) (A) (A) (A) (A) (A) (A) (A) (A) (A) (A)
                 (A) (A) (A) (A) (A) (A) (A) (A) (A) (A) (A) (A)
                 (A) (A) (A) (A) (A) (A) (A) (A) (A) (A) (A) (A)
                 (A) (A) (A) (A) (A) (A) (A) (A) (A) (A) (A) (A)
                 (A) (A) (A) (A) (A) (A) (A) (A) (A) (A) (A) (A)
                 (A) (A) (A) (A) (A) (A) (A) (A) (A) (A) (A) (A)
                 (A) (A) (A) (A) (A) (A) (A) (A) (A) (A) (A) (A)
                 (A) (A) (A) (A) (A) (A) (A) (A) (A) (A) (A) (A)
                 (A) (A) (A) (A) (A) (A) (A) (A) (A) (A) (A) (A)
                 (A) (A) (A) (A) (A) (A) (A) (A) (A) (A) (A) (A)
                 (A) (A) (A) (A) (A) (A) (A) (A) (A) (A) (A) (A)
                 (A) (A) (A) (A) (A) (A) (A) (A)
 Beta  Orbitals:
       Occupied  (A) (A) (A) (A) (A) (A) (A) (A) (A) (A) (A) (A)
                 (A) (A) (A) (A) (A) (A) (A) (A) (A) (A) (A) (A)
       Virtual   (A) (A) (A) (A) (A) (A) (A) (A) (A) (A) (A) (A)
                 (A) (A) (A) (A) (A) (A) (A) (A) (A) (A) (A) (A)
                 (A) (A) (A) (A) (A) (A) (A) (A) (A) (A) (A) (A)
                 (A) (A) (A) (A) (A) (A) (A) (A) (A) (A) (A) (A)
                 (A) (A) (A) (A) (A) (A) (A) (A) (A) (A) (A) (A)
                 (A) (A) (A) (A) (A) (A) (A) (A) (A) (A) (A) (A)
                 (A) (A) (A) (A) (A) (A) (A) (A) (A) (A) (A) (A)
                 (A) (A) (A) (A) (A) (A) (A) (A) (A) (A) (A) (A)
                 (A) (A) (A) (A) (A) (A) (A) (A) (A) (A) (A) (A)
                 (A) (A) (A) (A) (A) (A) (A) (A) (A) (A) (A) (A)
                 (A) (A) (A) (A) (A) (A) (A) (A) (A) (A) (A) (A)
                 (A) (A) (A) (A) (A) (A) (A) (A) (A) (A) (A) (A)
                 (A) (A) (A) (A) (A) (A) (A) (A) (A) (A) (A) (A)
                 (A) (A) (A) (A) (A) (A) (A) (A) (A) (A) (A) (A)
                 (A) (A) (A) (A) (A) (A) (A) (A) (A) (A) (A) (A)
                 (A) (A) (A) (A) (A) (A) (A) (A) (A) (A) (A) (A)
                 (A) (A) (A) (A) (A) (A) (A) (A) (A) (A) (A) (A)
                 (A) (A) (A) (A) (A) (A) (A) (A) (A) (A) (A) (A)
                 (A) (A) (A) (A) (A) (A) (A) (A) (A)
 The electronic state is 2-A.
 Alpha  occ. eigenvalues --  -19.75917 -19.73155 -19.71874 -19.69929 -10.66140
 Alpha  occ. eigenvalues --  -10.57060  -1.30892  -1.25041  -1.10941  -1.02002
 Alpha  occ. eigenvalues --   -0.90954  -0.73503  -0.71029  -0.65259  -0.59809
 Alpha  occ. eigenvalues --   -0.57877  -0.54595  -0.52851  -0.50549  -0.49225
 Alpha  occ. eigenvalues --   -0.43583  -0.41124  -0.38373  -0.34317  -0.33881
 Alpha virt. eigenvalues --   -0.09249   0.00754   0.01147   0.02512   0.03947
 Alpha virt. eigenvalues --    0.04351   0.06359   0.08691   0.09458   0.10552
 Alpha virt. eigenvalues --    0.11246   0.13737   0.15345   0.16251   0.16734
 Alpha virt. eigenvalues --    0.18281   0.18920   0.20615   0.21289   0.23459
 Alpha virt. eigenvalues --    0.24236   0.24860   0.27105   0.27235   0.29424
 Alpha virt. eigenvalues --    0.29771   0.31279   0.31672   0.33835   0.35126
 Alpha virt. eigenvalues --    0.38311   0.39535   0.40370   0.43739   0.48263
 Alpha virt. eigenvalues --    0.50124   0.51515   0.52694   0.54778   0.56593
 Alpha virt. eigenvalues --    0.60486   0.60873   0.62770   0.64751   0.65421
 Alpha virt. eigenvalues --    0.67134   0.71774   0.73861   0.74934   0.77333
 Alpha virt. eigenvalues --    0.78726   0.84438   0.91933   0.93218   0.95764
 Alpha virt. eigenvalues --    0.95884   0.97791   1.01603   1.02186   1.04285
 Alpha virt. eigenvalues --    1.05278   1.07574   1.12248   1.12522   1.13138
 Alpha virt. eigenvalues --    1.14430   1.15490   1.16243   1.18294   1.21480
 Alpha virt. eigenvalues --    1.22403   1.24123   1.26139   1.31708   1.35199
 Alpha virt. eigenvalues --    1.37737   1.39035   1.42882   1.45297   1.49296
 Alpha virt. eigenvalues --    1.50916   1.51720   1.54386   1.56206   1.58178
 Alpha virt. eigenvalues --    1.65321   1.66966   1.71551   1.75775   1.77612
 Alpha virt. eigenvalues --    1.83098   1.87653   1.89703   1.93427   2.03378
 Alpha virt. eigenvalues --    2.07205   2.14353   2.16547   2.21198   2.23548
 Alpha virt. eigenvalues --    2.28728   2.34716   2.38515   2.42667   2.50226
 Alpha virt. eigenvalues --    2.52074   2.57095   2.62565   2.65614   2.68377
 Alpha virt. eigenvalues --    2.69837   2.71484   2.73431   2.76306   2.80138
 Alpha virt. eigenvalues --    2.86301   2.89910   2.95999   3.04117   3.04841
 Alpha virt. eigenvalues --    3.09055   3.13948   3.17719   3.19658   3.22431
 Alpha virt. eigenvalues --    3.26291   3.29862   3.29989   3.32166   3.36208
 Alpha virt. eigenvalues --    3.46072   3.51477   3.56605   3.58002   3.61590
 Alpha virt. eigenvalues --    3.63563   3.73027   3.78215   3.81541   3.84924
 Alpha virt. eigenvalues --    3.86129   3.91003   3.94901   3.97877   4.04036
 Alpha virt. eigenvalues --    4.05989   4.15548   4.17779   4.20835   4.35113
 Alpha virt. eigenvalues --    4.42999   4.49267   4.53680   4.56925   4.64032
 Alpha virt. eigenvalues --    4.70123   4.74547   4.78420   4.80481   4.85801
 Alpha virt. eigenvalues --    4.90263   4.93064   4.97386   5.01093   5.05327
 Alpha virt. eigenvalues --    5.06525   5.07668   5.10924   5.12241   5.13073
 Alpha virt. eigenvalues --    5.14492   5.16632   5.19858   5.23157   5.23444
 Alpha virt. eigenvalues --    5.25956   5.30812   5.33824   5.35537   5.35851
 Alpha virt. eigenvalues --    5.37913   5.42351   5.45052   5.51163   5.55430
 Alpha virt. eigenvalues --    5.59757   5.71604   5.74630   5.87743   5.91658
 Alpha virt. eigenvalues --    5.94851   6.00970   6.39494   6.50897   6.54871
 Alpha virt. eigenvalues --    6.66833   6.71946   6.72920   6.84749   6.90992
 Alpha virt. eigenvalues --    6.92263   6.95516   6.95982   7.01976   7.09056
 Alpha virt. eigenvalues --    7.19790   7.25933   7.31197   7.32036   7.35168
 Alpha virt. eigenvalues --    7.37405   7.43730   7.49865   7.57334   7.75569
 Alpha virt. eigenvalues --    7.80589   8.03446   8.11221  24.12816  24.76646
 Alpha virt. eigenvalues --   49.94618  50.01360  50.04462  50.11793
  Beta  occ. eigenvalues --  -19.75880 -19.73136 -19.70654 -19.69914 -10.66107
  Beta  occ. eigenvalues --  -10.56522  -1.30541  -1.22898  -1.10656  -0.99519
  Beta  occ. eigenvalues --   -0.89739  -0.71082  -0.70257  -0.63206  -0.59084
  Beta  occ. eigenvalues --   -0.56167  -0.53208  -0.51115  -0.48955  -0.48263
  Beta  occ. eigenvalues --   -0.42975  -0.39647  -0.37006  -0.33401
  Beta virt. eigenvalues --   -0.11523  -0.07109   0.01224   0.01245   0.03038
  Beta virt. eigenvalues --    0.04134   0.04771   0.06540   0.08873   0.09762
  Beta virt. eigenvalues --    0.10820   0.11226   0.13806   0.15393   0.16480
  Beta virt. eigenvalues --    0.16707   0.18253   0.19040   0.20694   0.21437
  Beta virt. eigenvalues --    0.23601   0.24286   0.24861   0.27055   0.27383
  Beta virt. eigenvalues --    0.29514   0.29835   0.31352   0.31649   0.34123
  Beta virt. eigenvalues --    0.35064   0.38431   0.39669   0.40452   0.44128
  Beta virt. eigenvalues --    0.48632   0.50359   0.51626   0.52916   0.55307
  Beta virt. eigenvalues --    0.57010   0.60756   0.61039   0.62932   0.65142
  Beta virt. eigenvalues --    0.65949   0.67451   0.72196   0.74239   0.75892
  Beta virt. eigenvalues --    0.78121   0.78862   0.84749   0.92027   0.93690
  Beta virt. eigenvalues --    0.95947   0.96743   0.97815   1.01767   1.02303
  Beta virt. eigenvalues --    1.04357   1.06146   1.07756   1.12572   1.12917
  Beta virt. eigenvalues --    1.13189   1.14517   1.15918   1.16346   1.18500
  Beta virt. eigenvalues --    1.21802   1.22548   1.24408   1.26169   1.32003
  Beta virt. eigenvalues --    1.35370   1.37937   1.39533   1.43665   1.45616
  Beta virt. eigenvalues --    1.49440   1.51254   1.52569   1.54615   1.56771
  Beta virt. eigenvalues --    1.58523   1.65563   1.67182   1.71827   1.75843
  Beta virt. eigenvalues --    1.77936   1.83287   1.87841   1.89993   1.93744
  Beta virt. eigenvalues --    2.04768   2.08133   2.14716   2.16723   2.21761
  Beta virt. eigenvalues --    2.23990   2.29800   2.34921   2.39219   2.42838
  Beta virt. eigenvalues --    2.50365   2.52287   2.57380   2.62709   2.65813
  Beta virt. eigenvalues --    2.68668   2.70458   2.71111   2.73464   2.76344
  Beta virt. eigenvalues --    2.80768   2.86870   2.90080   2.96308   3.04281
  Beta virt. eigenvalues --    3.06728   3.09890   3.14228   3.18651   3.21132
  Beta virt. eigenvalues --    3.23859   3.27284   3.30348   3.30749   3.32713
  Beta virt. eigenvalues --    3.36619   3.47873   3.52828   3.57906   3.58996
  Beta virt. eigenvalues --    3.62682   3.63786   3.74337   3.78481   3.82341
  Beta virt. eigenvalues --    3.85150   3.86553   3.91267   3.95378   3.98216
  Beta virt. eigenvalues --    4.04125   4.06007   4.16551   4.18159   4.21540
  Beta virt. eigenvalues --    4.36108   4.43142   4.49887   4.54617   4.57089
  Beta virt. eigenvalues --    4.64581   4.70489   4.75169   4.78928   4.81108
  Beta virt. eigenvalues --    4.86244   4.90709   4.93533   4.97721   5.01710
  Beta virt. eigenvalues --    5.05463   5.06717   5.08090   5.11131   5.12804
  Beta virt. eigenvalues --    5.13113   5.14479   5.16827   5.19850   5.23284
  Beta virt. eigenvalues --    5.23659   5.26310   5.31091   5.34139   5.35745
  Beta virt. eigenvalues --    5.36104   5.38513   5.43339   5.46111   5.51635
  Beta virt. eigenvalues --    5.55939   5.60734   5.72179   5.75893   5.89161
  Beta virt. eigenvalues --    5.92064   5.94935   6.00944   6.39436   6.51116
  Beta virt. eigenvalues --    6.55348   6.66928   6.72144   6.73441   6.85098
  Beta virt. eigenvalues --    6.91541   6.92840   6.96217   6.98721   7.05200
  Beta virt. eigenvalues --    7.11157   7.20089   7.25966   7.31117   7.32409
  Beta virt. eigenvalues --    7.36327   7.40787   7.44447   7.50266   7.58255
  Beta virt. eigenvalues --    7.75961   7.82299   8.04295   8.11146  24.13010
  Beta virt. eigenvalues --   24.77127  49.94593  50.00813  50.04404  50.11808
          Condensed to atoms (all electrons):
               1          2          3          4          5          6
     1  C    5.473567   0.419798   0.387053   0.255432  -0.099114  -0.029198
     2  C    0.419798   5.268950  -0.032586  -0.008794   0.164030   0.366752
     3  H    0.387053  -0.032586   0.513035  -0.034630   0.004620  -0.003493
     4  H    0.255432  -0.008794  -0.034630   0.441411  -0.002492   0.004681
     5  O   -0.099114   0.164030   0.004620  -0.002492   7.885252  -0.021914
     6  H   -0.029198   0.366752  -0.003493   0.004681  -0.021914   0.462119
     7  O    0.008489  -0.019789  -0.000675  -0.004873   0.153760   0.000895
     8  H    0.010696  -0.009781  -0.000136   0.004396  -0.006419  -0.000374
     9  O   -0.029648  -0.041941   0.012223   0.020035   0.023374   0.000396
    10  O   -0.003796  -0.013176  -0.000286  -0.031588   0.019597  -0.001447
    11  H   -0.025625   0.024706   0.000394  -0.014506   0.040323  -0.000290
               7          8          9         10         11
     1  C    0.008489   0.010696  -0.029648  -0.003796  -0.025625
     2  C   -0.019789  -0.009781  -0.041941  -0.013176   0.024706
     3  H   -0.000675  -0.000136   0.012223  -0.000286   0.000394
     4  H   -0.004873   0.004396   0.020035  -0.031588  -0.014506
     5  O    0.153760  -0.006419   0.023374   0.019597   0.040323
     6  H    0.000895  -0.000374   0.000396  -0.001447  -0.000290
     7  O    7.895559   0.228110   0.027685  -0.034752  -0.028682
     8  H    0.228110   0.456962  -0.013273   0.099951  -0.075530
     9  O    0.027685  -0.013273   8.146231   0.131966  -0.029004
    10  O   -0.034752   0.099951   0.131966   7.913811   0.269544
    11  H   -0.028682  -0.075530  -0.029004   0.269544   0.420915
          Atomic-Atomic Spin Densities.
               1          2          3          4          5          6
     1  C    0.582127  -0.036050  -0.011273   0.090616  -0.013943  -0.006772
     2  C   -0.036050   0.010903   0.000648  -0.003127   0.004238   0.018053
     3  H   -0.011273   0.000648   0.012725  -0.005696   0.001056  -0.002325
     4  H    0.090616  -0.003127  -0.005696  -0.063109  -0.006504  -0.000398
     5  O   -0.013943   0.004238   0.001056  -0.006504   0.020278  -0.004340
     6  H   -0.006772   0.018053  -0.002325  -0.000398  -0.004340  -0.010775
     7  O    0.007457  -0.001801  -0.000315   0.002719  -0.017467   0.000733
     8  H   -0.003877   0.000418   0.000124  -0.001610   0.004690  -0.000121
     9  O   -0.167520   0.017087   0.012403  -0.026940   0.012297  -0.002529
    10  O    0.025664  -0.003751  -0.002459   0.014247  -0.004901   0.001219
    11  H    0.008607   0.000839  -0.000712   0.007717  -0.008920   0.000587
               7          8          9         10         11
     1  C    0.007457  -0.003877  -0.167520   0.025664   0.008607
     2  C   -0.001801   0.000418   0.017087  -0.003751   0.000839
     3  H   -0.000315   0.000124   0.012403  -0.002459  -0.000712
     4  H    0.002719  -0.001610  -0.026940   0.014247   0.007717
     5  O   -0.017467   0.004690   0.012297  -0.004901  -0.008920
     6  H    0.000733  -0.000121  -0.002529   0.001219   0.000587
     7  O    0.040997  -0.003792  -0.006257   0.002169   0.004890
     8  H   -0.003792   0.002566   0.003825   0.000827  -0.001842
     9  O   -0.006257   0.003825   0.693097  -0.028094  -0.015786
    10  O    0.002169   0.000827  -0.028094  -0.008626   0.004068
    11  H    0.004890  -0.001842  -0.015786   0.004068   0.003658
 Mulliken charges and spin densities:
               1          2
     1  C   -0.367653   0.475037
     2  C   -0.118170   0.007459
     3  H    0.154479   0.004177
     4  H    0.370929   0.007916
     5  O   -0.161015  -0.013515
     6  H    0.221872  -0.006666
     7  O   -0.225727   0.029333
     8  H    0.305398   0.001208
     9  O   -0.248044   0.491584
    10  O   -0.349824   0.000363
    11  H    0.417755   0.003105
 Sum of Mulliken charges =  -0.00000   1.00000
 Mulliken charges and spin densities with hydrogens summed into heavy atoms:
               1          2
     1  C    0.157755   0.487129
     2  C    0.103702   0.000792
     5  O   -0.161015  -0.013515
     7  O    0.079671   0.030541
     9  O   -0.248044   0.491584
    10  O    0.067931   0.003469
 Electronic spatial extent (au):  <R**2>=            552.0033
 Charge=             -0.0000 electrons
 Dipole moment (field-independent basis, Debye):
    X=              1.1887    Y=              1.7695    Z=              0.3671  Tot=              2.1631
 Quadrupole moment (field-independent basis, Debye-Ang):
   XX=            -33.7701   YY=            -35.1335   ZZ=            -38.6234
   XY=              6.8611   XZ=             -0.3088   YZ=              1.5370
 Traceless Quadrupole moment (field-independent basis, Debye-Ang):
   XX=              2.0723   YY=              0.7088   ZZ=             -2.7811
   XY=              6.8611   XZ=             -0.3088   YZ=              1.5370
 Octapole moment (field-independent basis, Debye-Ang**2):
  XXX=              4.8586  YYY=              1.3522  ZZZ=             -0.2472  XYY=             -1.8309
  XXY=             -1.7928  XXZ=              1.7643  XZZ=             -3.9029  YZZ=             -2.2290
  YYZ=              1.6997  XYZ=              2.2011
 Hexadecapole moment (field-independent basis, Debye-Ang**3):
 XXXX=           -304.5803 YYYY=           -278.8790 ZZZZ=            -64.1079 XXXY=             14.5705
 XXXZ=              1.0815 YYYX=             13.5670 YYYZ=              7.2089 ZZZX=             -0.8288
 ZZZY=              1.1720 XXYY=            -92.8236 XXZZ=            -66.8988 YYZZ=            -62.4854
 XXYZ=              2.0312 YYXZ=              4.9558 ZZXY=             -3.4068
 N-N= 2.562395369057D+02 E-N=-1.406180896944D+03  KE= 3.786064596388D+02
                          Isotropic Fermi Contact Couplings
        Atom                 a.u.       MegaHertz       Gauss      10(-4) cm-1
     1  C(13)              0.20433     229.70107      81.96305      76.62003
     2  C(13)              0.01194      13.42205       4.78932       4.47711
     3  H(1)               0.00546      24.40813       8.70943       8.14167
     4  H(1)              -0.02398    -107.19564     -38.25007     -35.75662
     5  O(17)              0.09328     -56.54613     -20.17706     -18.86176
     6  H(1)              -0.00619     -27.68934      -9.88025      -9.23617
     7  O(17)             -0.00263       1.59532       0.56925       0.53214
     8  H(1)              -0.00034      -1.51115      -0.53922      -0.50407
     9  O(17)              0.13568     -82.24721     -29.34785     -27.43472
    10  O(17)              0.01287      -7.80376      -2.78457      -2.60305
    11  H(1)               0.00141       6.29278       2.24542       2.09904
 --------------------------------------------------------
       Center         ----  Spin Dipole Couplings  ----
                      3XX-RR        3YY-RR        3ZZ-RR
 --------------------------------------------------------
     1   Atom       -0.330436      0.522488     -0.192052
     2   Atom        0.051011      0.050349     -0.101360
     3   Atom        0.038587     -0.006793     -0.031794
     4   Atom       -0.140283      0.297295     -0.157012
     5   Atom        0.062856      0.010527     -0.073383
     6   Atom        0.006908      0.011349     -0.018257
     7   Atom        0.045357     -0.013313     -0.032044
     8   Atom        0.009814     -0.001213     -0.008600
     9   Atom       -0.887291      2.021503     -1.134212
    10   Atom        0.006184      0.133653     -0.139838
    11   Atom        0.020214     -0.007532     -0.012682
 --------------------------------------------------------
                        XY            XZ            YZ
 --------------------------------------------------------
     1   Atom        0.029967      0.002964      0.197562
     2   Atom       -0.093948     -0.030771      0.054932
     3   Atom        0.017002      0.010115      0.007758
     4   Atom        0.113975      0.013194      0.076917
     5   Atom       -0.037841      0.002128     -0.054662
     6   Atom       -0.010930     -0.003323      0.010963
     7   Atom        0.068475      0.096323      0.086669
     8   Atom       -0.002267     -0.001983     -0.001652
     9   Atom        1.082810      0.101962      0.448833
    10   Atom        0.121496      0.075291     -0.016128
    11   Atom       -0.004824     -0.007983      0.005345
 --------------------------------------------------------


 ---------------------------------------------------------------------------------
              Anisotropic Spin Dipole Couplings in Principal Axis System
 ---------------------------------------------------------------------------------

       Atom             a.u.   MegaHertz   Gauss  10(-4) cm-1        Axes

              Baa    -0.3317   -44.505   -15.880   -14.845  0.9981 -0.0448  0.0422
     1 C(13)  Bbb    -0.2428   -32.581   -11.626   -10.868 -0.0520 -0.2477  0.9674
              Bcc     0.5745    77.086    27.506    25.713  0.0329  0.9678  0.2496
 
              Baa    -0.1192   -15.990    -5.706    -5.334  0.0026 -0.3070  0.9517
     2 C(13)  Bbb    -0.0396    -5.320    -1.898    -1.775  0.7370  0.6439  0.2056
              Bcc     0.1588    21.311     7.604     7.108 -0.6759  0.7009  0.2279
 
              Baa    -0.0344   -18.370    -6.555    -6.127 -0.0830 -0.2217  0.9716
     3 H(1)   Bbb    -0.0117    -6.239    -2.226    -2.081 -0.3474  0.9202  0.1803
              Bcc     0.0461    24.608     8.781     8.208  0.9340  0.3226  0.1534
 
              Baa    -0.1742   -92.927   -33.159   -30.997  0.6247 -0.2705  0.7325
     4 H(1)   Bbb    -0.1633   -87.125   -31.088   -29.062  0.7452 -0.0737 -0.6628
              Bcc     0.3375   180.052    64.247    60.059  0.2333  0.9599  0.1555
 
              Baa    -0.1017     7.362     2.627     2.456  0.0947  0.4614  0.8821
     5 O(17)  Bbb     0.0137    -0.989    -0.353    -0.330  0.5622  0.7065 -0.4299
              Bcc     0.0881    -6.373    -2.274    -2.126  0.8216 -0.5366  0.1925
 
              Baa    -0.0219   -11.673    -4.165    -3.894 -0.0107 -0.3165  0.9485
     6 H(1)   Bbb    -0.0012    -0.625    -0.223    -0.208  0.8162  0.5452  0.1911
              Bcc     0.0230    12.298     4.388     4.102 -0.5777  0.7762  0.2525
 
              Baa    -0.1174     8.492     3.030     2.833 -0.2738 -0.5028  0.8199
     7 O(17)  Bbb    -0.0544     3.934     1.404     1.312 -0.6805  0.7037  0.2043
              Bcc     0.1717   -12.426    -4.434    -4.145  0.6797  0.5020  0.5348
 
              Baa    -0.0093    -4.943    -1.764    -1.649  0.1280  0.2338  0.9638
     8 H(1)   Bbb    -0.0011    -0.608    -0.217    -0.203  0.1522  0.9557 -0.2521
              Bcc     0.0104     5.551     1.981     1.851  0.9800 -0.1790 -0.0867
 
              Baa    -1.2710    91.967    32.816    30.677  0.8074 -0.3320  0.4877
     9 O(17)  Bbb    -1.1681    84.522    30.160    28.194 -0.5016  0.0488  0.8637
              Bcc     2.4391  -176.489   -62.976   -58.870  0.3105  0.9420  0.1272
 
              Baa    -0.1860    13.462     4.803     4.490 -0.4746  0.2233  0.8514
    10 O(17)  Bbb    -0.0230     1.664     0.594     0.555  0.7005 -0.4899  0.5190
              Bcc     0.2090   -15.126    -5.397    -5.045  0.5330  0.8427  0.0761
 
              Baa    -0.0166    -8.859    -3.161    -2.955  0.1325 -0.4499  0.8832
    11 H(1)   Bbb    -0.0066    -3.519    -1.256    -1.174  0.2769  0.8724  0.4029
              Bcc     0.0232    12.378     4.417     4.129  0.9517 -0.1912 -0.2402
 

 ---------------------------------------------------------------------------------

 Calling FoFJK, ICntrl=      2127 FMM=F ISym2X=0 I1Cent= 0 IOpClX= 1 NMat=1 NMatS=1 NMatT=0.
 ***** Axes restored to original set *****
 -------------------------------------------------------------------
 Center     Atomic                   Forces (Hartrees/Bohr)
 Number     Number              X              Y              Z
 -------------------------------------------------------------------
      1        6           0.042539887   -0.005917489    0.066838901
      2        6           0.014114156    0.034293891   -0.120564714
      3        1          -0.002560372    0.001782911    0.006539940
      4        1           0.004444077    0.019208442   -0.027255173
      5        8           0.013336085   -0.022485794    0.085931642
      6        1          -0.025182800   -0.016613855    0.065677893
      7        8          -0.001270486    0.013496919   -0.017822498
      8        1          -0.019427428    0.015567075    0.024753653
      9        8          -0.072115352   -0.037706883   -0.019980792
     10        8          -0.000150305    0.043132035    0.011083628
     11        1           0.046272539   -0.044757250   -0.075202481
 -------------------------------------------------------------------
 Cartesian Forces:  Max     0.120564714 RMS     0.041646923

 GradGradGradGradGradGradGradGradGradGradGradGradGradGradGradGradGradGrad
 Berny optimization.
 FormGI is forming the generalized inverse of G from B-inverse, IUseBI=4.
 Internal  Forces:  Max     0.196199575 RMS     0.068756483
 Search for a saddle point.
 Step number   1 out of a maximum of   42
 All quantities printed in internal units (Hartrees-Bohrs-Radians)
 Swapping is turned off.
 Second derivative matrix not updated -- first step.
 ITU=  0
     Eigenvalues ---    0.00230   0.00230   0.00230   0.00309   0.01808
     Eigenvalues ---    0.02131   0.02209   0.02797   0.15816   0.15954
     Eigenvalues ---    0.16000   0.16000   0.16000   0.16000   0.21923
     Eigenvalues ---    0.25000   0.25000   0.30498   0.31645   0.32762
     Eigenvalues ---    0.33034   0.33644   0.34829   0.35201   0.36102
     Eigenvalues ---    0.47109   0.55779
 Eigenvectors required to have negative eigenvalues:
                          D10       D6        D5        D9        D11
   1                   -0.92828  -0.21969  -0.21969  -0.20437   0.00000
                          D4        D2        D3        D8        D1
   1                   -0.00000  -0.00000  -0.00000   0.00000  -0.00000
 RFO step:  Lambda0=8.973999621D-02 Lambda=-3.35072147D-01.
 Linear search not attempted -- option 19 set.
 Maximum step size (   0.300) exceeded in Quadratic search.
    -- Step size scaled by   0.626
 Iteration  1 RMS(Cart)=  0.41564471 RMS(Int)=  0.06300777
 Iteration  2 RMS(Cart)=  0.09475855 RMS(Int)=  0.01984755
 Iteration  3 RMS(Cart)=  0.03257407 RMS(Int)=  0.00249253
 Iteration  4 RMS(Cart)=  0.00171979 RMS(Int)=  0.00158050
 Iteration  5 RMS(Cart)=  0.00000428 RMS(Int)=  0.00158050
 Iteration  6 RMS(Cart)=  0.00000000 RMS(Int)=  0.00158050
 Variable       Old X    -DE/DX   Delta X   Delta X   Delta X     New X
                                 (Linear)    (Quad)   (Total)
    R1        2.54446   0.03650   0.00000   0.02561   0.02561   2.57007
    R2        2.05954  -0.00443   0.00000  -0.00406  -0.00406   2.05548
    R3        2.07935   0.09561   0.00000   0.08917   0.08917   2.16851
    R4        2.62901   0.02663   0.00000   0.02069   0.02069   2.64969
    R5        2.08991  -0.00432   0.00000  -0.00407  -0.00407   2.08584
    R6        2.09471   0.06845   0.00000   0.06469   0.06469   2.15940
    R7        2.84799   0.01968   0.00000   0.01892   0.01892   2.86691
    R8        2.03923  -0.02894   0.00000  -0.02604  -0.02604   2.01319
    R9        2.78650  -0.04230   0.00000  -0.03856  -0.03856   2.74794
   R10        2.13680  -0.08645   0.00000  -0.08459  -0.08459   2.05221
    A1        2.21290  -0.03340   0.00000  -0.04213  -0.04217   2.17073
    A2        2.11018   0.07057   0.00000   0.08939   0.08936   2.19953
    A3        1.95400  -0.03625   0.00000  -0.04574  -0.04577   1.90823
    A4        2.15368   0.12929   0.00000   0.14678   0.14690   2.30059
    A5        1.49997   0.00284   0.00000   0.01351   0.01359   1.51355
    A6        2.61742  -0.12857   0.00000  -0.15430  -0.15506   2.46236
    A7        2.80371   0.00839   0.00000   0.00898   0.00898   2.81269
    A8        2.62832   0.05059   0.00000   0.05415   0.05415   2.68248
    A9        1.80239   0.04028   0.00000   0.05096   0.05096   1.85335
   A10        1.62483  -0.01180   0.00000  -0.01493  -0.01493   1.60990
   A11        1.69107  -0.00172   0.00000  -0.00218  -0.00218   1.68889
    D1       -3.01360  -0.04588   0.00000  -0.08387  -0.08718  -3.10078
    D2        0.00787  -0.04705   0.00000  -0.07649  -0.07313  -0.06526
    D3       -0.00044  -0.03818   0.00000  -0.07054  -0.07390  -0.07434
    D4        3.02103  -0.03935   0.00000  -0.06317  -0.05985   2.96118
    D5       -0.34382  -0.10398   0.00000  -0.07427  -0.07433  -0.41816
    D6        2.68695  -0.09850   0.00000  -0.06425  -0.06419   2.62277
    D7       -0.00954  -0.00253   0.00000  -0.01062  -0.01480  -0.02434
    D8       -2.90998  -0.05480   0.00000  -0.09106  -0.08689  -2.99687
    D9       -0.48365  -0.19620   0.00000  -0.25382  -0.25382  -0.73747
   D10        0.61298  -0.00431   0.00000   0.49346   0.49346   1.10645
   D11        1.01628  -0.10229   0.00000  -0.18945  -0.18945   0.82684
         Item               Value     Threshold  Converged?
 Maximum Force            0.196200     0.000450     NO 
 RMS     Force            0.068756     0.000300     NO 
 Maximum Displacement     1.400388     0.001800     NO 
 RMS     Displacement     0.507038     0.001200     NO 
 Predicted change in Energy=-1.656217D-01
 GradGradGradGradGradGradGradGradGradGradGradGradGradGradGradGradGradGrad

                          Input orientation:                          
 ---------------------------------------------------------------------
 Center     Atomic      Atomic             Coordinates (Angstroms)
 Number     Number       Type             X           Y           Z
 ---------------------------------------------------------------------
      1          6           0      -30.981337  -13.862452   -3.600891
      2          6           0      -31.522098  -14.085203   -2.373042
      3          1           0      -29.922648  -13.956785   -3.831961
      4          1           0      -31.564050  -13.654365   -4.567311
      5          8           0      -32.846989  -14.052640   -1.915168
      6          1           0      -30.509184  -14.382759   -2.050869
      7          8           0      -34.339950  -13.843518   -2.085277
      8          1           0      -34.665694  -14.580860   -2.781806
      9          8           0      -32.408366  -13.629109   -5.336904
     10          8           0      -32.774787  -15.009742   -5.064628
     11          1           0      -32.778695  -14.929878   -3.981592
 ---------------------------------------------------------------------
                    Distance matrix (angstroms):
                    1          2          3          4          5
     1  C    0.000000
     2  C    1.360020   0.000000
     3  H    1.087711   2.168681   0.000000
     4  H    1.147529   2.236560   1.823842   0.000000
     5  O    2.521605   1.402157   3.497865   2.972948   0.000000
     6  H    1.701827   1.103780   1.922958   2.824142   2.364894
     7  O    3.684797   2.842800   4.751452   3.728524   1.517103
     8  H    3.842069   3.208576   4.897834   3.696838   2.082730
     9  O    2.259336   3.126975   2.924213   1.142707   3.475637
    10  O    2.583653   3.109443   3.280683   1.884212   3.292470
    11  H    2.124812   2.209060   3.020978   1.856168   2.245956
                    6          7          8          9         10
     6  H    0.000000
     7  O    3.868686   0.000000
     8  H    4.224936   1.065333   0.000000
     9  O    3.869484   3.788148   3.539757   0.000000
    10  O    3.822146   3.561790   2.995120   1.454148   0.000000
    11  H    3.029473   2.685834   2.263197   1.914684   1.085984
                   11
    11  H    0.000000
 Stoichiometry    C2H5O4(2)
 Framework group  C1[X(C2H5O4)]
 Deg. of freedom    27
 Full point group                 C1      NOp   1
 Largest Abelian subgroup         C1      NOp   1
 Largest concise Abelian subgroup C1      NOp   1
                         Standard orientation:                         
 ---------------------------------------------------------------------
 Center     Atomic      Atomic             Coordinates (Angstroms)
 Number     Number       Type             X           Y           Z
 ---------------------------------------------------------------------
      1          6           0        0.777169    1.351250   -0.154443
      2          6           0       -0.548609    1.340523    0.148629
      3          1           0        1.433652    2.206098   -0.008221
      4          1           0        1.398438    0.449372   -0.497170
      5          8           0       -1.518071    0.330805    0.067043
      6          1           0       -0.400871    2.359025    0.547573
      7          8           0       -1.998533   -1.069773   -0.263323
      8          1           0       -1.458466   -1.727848    0.377146
      9          8           0        1.743068   -0.628236   -0.657706
     10          8           0        1.425881   -0.994223    0.713423
     11          1           0        0.437129   -0.545869    0.740062
 ---------------------------------------------------------------------
 Rotational constants (GHZ):           4.3063886           2.3232570           1.6910764
 Standard basis: 6-311+G(2df,2p) (5D, 7F)
 There are   279 symmetry adapted cartesian basis functions of A   symmetry.
 There are   249 symmetry adapted basis functions of A   symmetry.
   249 basis functions,   367 primitive gaussians,   279 cartesian basis functions
    25 alpha electrons       24 beta electrons
       nuclear repulsion energy       236.1627504189 Hartrees.
 NAtoms=   11 NActive=   11 NUniq=   11 SFac= 1.00D+00 NAtFMM=   60 NAOKFM=F Big=F
 Integral buffers will be    131072 words long.
 Raffenetti 2 integral format.
 Two-electron integral symmetry is turned on.
 One-electron integrals computed using PRISM.
 NBasis=   249 RedAO= T EigKep=  7.99D-05  NBF=   249
 NBsUse=   249 1.00D-06 EigRej= -1.00D+00 NBFU=   249
 Initial guess from the checkpoint file:  "/scratch/dinius.ab/QMscratch/Gau-25157.chk"
 B after Tr=    -0.000000   -0.000000   -0.000000
         Rot=    0.959483   -0.020964   -0.045716   -0.277243 Ang= -32.73 deg.
 Initial guess <Sx>= 0.0000 <Sy>= 0.0000 <Sz>= 0.5000 <S**2>= 0.7623 S= 0.5061
 ExpMin= 4.38D-02 ExpMax= 8.59D+03 ExpMxC= 1.30D+03 IAcc=2 IRadAn=         4 AccDes= 0.00D+00
 Harris functional with IExCor= 1009 and IRadAn=       4 diagonalized for initial guess.
 HarFok:  IExCor= 1009 AccDes= 0.00D+00 IRadAn=         4 IDoV= 1 UseB2=F ITyADJ=14
 ICtDFT=  3500011 ScaDFX=  1.000000  1.000000  1.000000  1.000000
 FoFCou: FMM=F IPFlag=           0 FMFlag=      100000 FMFlg1=           0
         NFxFlg=           0 DoJE=T BraDBF=F KetDBF=T FulRan=T
         wScrn=  0.000000 ICntrl=       500 IOpCl=  0 I1Cent=   200000004 NGrid=           0
         NMat0=    1 NMatS0=      1 NMatT0=    0 NMatD0=    1 NMtDS0=    0 NMtDT0=    0
 Petite list used in FoFCou.
 Requested convergence on RMS density matrix=1.00D-08 within 128 cycles.
 Requested convergence on MAX density matrix=1.00D-06.
 Requested convergence on             energy=1.00D-06.
 No special actions if energy rises.
 Restarting incremental Fock formation.
 SCF Done:  E(UM062X) =  -379.613003810     A.U. after   25 cycles
            NFock= 25  Conv=0.47D-08     -V/T= 2.0041
 <Sx>= 0.0000 <Sy>= 0.0000 <Sz>= 0.5000 <S**2>= 0.7623 S= 0.5062
 <L.S>= 0.000000000000E+00
 Annihilation of the first spin contaminant:
 S**2 before annihilation     0.7623,   after     0.7501
 Calling FoFJK, ICntrl=      2127 FMM=F ISym2X=0 I1Cent= 0 IOpClX= 1 NMat=1 NMatS=1 NMatT=0.
 ***** Axes restored to original set *****
 -------------------------------------------------------------------
 Center     Atomic                   Forces (Hartrees/Bohr)
 Number     Number              X              Y              Z
 -------------------------------------------------------------------
      1        6           0.004619444    0.001669628    0.052674217
      2        6          -0.006969816    0.028599879   -0.112307499
      3        1          -0.001282886    0.000159839    0.006037488
      4        1           0.007875439    0.020267687   -0.007826106
      5        8           0.026174293   -0.025321984    0.068264152
      6        1          -0.027388930   -0.012956568    0.061556485
      7        8           0.022566477   -0.036638542   -0.070793971
      8        1           0.026584710    0.043759503    0.040273145
      9        8          -0.040175216   -0.035919651   -0.023483255
     10        8          -0.005851629    0.034188468    0.066029975
     11        1          -0.006151884   -0.017808257   -0.080424631
 -------------------------------------------------------------------
 Cartesian Forces:  Max     0.112307499 RMS     0.040636139

 GradGradGradGradGradGradGradGradGradGradGradGradGradGradGradGradGradGrad
 Berny optimization.
 FormGI is forming the generalized inverse of G from B-inverse, IUseBI=4.
 Internal  Forces:  Max     0.116116669 RMS     0.041873138
 Search for a saddle point.
 Step number   2 out of a maximum of   42
 All quantities printed in internal units (Hartrees-Bohrs-Radians)
 Swapping is turned off.
 Update second derivatives using D2CorX and points    1    2
 ITU=  0  0
     Eigenvalues ---   -0.18026   0.00230   0.00293   0.01759   0.02107
     Eigenvalues ---    0.02251   0.02549   0.09904   0.15091   0.15969
     Eigenvalues ---    0.15988   0.16000   0.16000   0.18347   0.23182
     Eigenvalues ---    0.24992   0.29964   0.31193   0.32488   0.33034
     Eigenvalues ---    0.33384   0.34828   0.35118   0.35702   0.45124
     Eigenvalues ---    0.54708   0.86788
 Eigenvectors required to have negative eigenvalues:
                          D10       D6        D5        A8        A5
   1                   -0.92746  -0.15495  -0.14850   0.14497  -0.12506
                          A10       A6        R10       R8        R6
   1                   -0.11204   0.10164   0.08222   0.06053  -0.06053
 RFO step:  Lambda0=1.930316821D-02 Lambda=-1.42364530D-01.
 Linear search not attempted -- option 19 set.
 Maximum step size (   0.300) exceeded in Quadratic search.
    -- Step size scaled by   0.587
 Iteration  1 RMS(Cart)=  0.24010319 RMS(Int)=  0.02354290
 Iteration  2 RMS(Cart)=  0.02853708 RMS(Int)=  0.00059114
 Iteration  3 RMS(Cart)=  0.00062280 RMS(Int)=  0.00024195
 Iteration  4 RMS(Cart)=  0.00000057 RMS(Int)=  0.00024195
 Variable       Old X    -DE/DX   Delta X   Delta X   Delta X     New X
                                 (Linear)    (Quad)   (Total)
    R1        2.57007  -0.02761   0.00000  -0.01721  -0.01721   2.55285
    R2        2.05548  -0.00255   0.00000  -0.00287  -0.00287   2.05260
    R3        2.16851   0.06112   0.00000   0.06966   0.06966   2.23818
    R4        2.64969  -0.05927   0.00000  -0.04524  -0.04524   2.60445
    R5        2.08584  -0.00367   0.00000  -0.00411  -0.00411   2.08173
    R6        2.15940   0.06363   0.00000   0.07106   0.07106   2.23046
    R7        2.86691  -0.04397   0.00000  -0.04410  -0.04410   2.82281
    R8        2.01319  -0.06475   0.00000  -0.06434  -0.06434   1.94884
    R9        2.74794  -0.01522   0.00000  -0.01838  -0.01838   2.72956
   R10        2.05221  -0.08149   0.00000  -0.09527  -0.09527   1.95695
    A1        2.17073  -0.00117   0.00000  -0.00640  -0.00641   2.16433
    A2        2.19953  -0.00846   0.00000  -0.00309  -0.00309   2.19644
    A3        1.90823   0.00974   0.00000   0.00997   0.00997   1.91820
    A4        2.30059  -0.01450   0.00000  -0.00351  -0.00348   2.29711
    A5        1.51355   0.07834   0.00000   0.12075   0.12079   1.63434
    A6        2.46236  -0.06379   0.00000  -0.11640  -0.11646   2.34590
    A7        2.81269   0.02249   0.00000   0.02808   0.02808   2.84077
    A8        2.68248  -0.11612   0.00000  -0.13487  -0.13487   2.54760
    A9        1.85335  -0.01382   0.00000  -0.01562  -0.01562   1.83773
   A10        1.60990   0.07245   0.00000   0.10968   0.10968   1.71958
   A11        1.68889   0.02687   0.00000   0.04105   0.04105   1.72993
    D1       -3.10078  -0.00071   0.00000  -0.01519  -0.01567  -3.11645
    D2       -0.06526  -0.00365   0.00000  -0.01567  -0.01519  -0.08045
    D3       -0.07434   0.00120   0.00000  -0.00867  -0.00916  -0.08350
    D4        2.96118  -0.00174   0.00000  -0.00915  -0.00868   2.95250
    D5       -0.41816  -0.00444   0.00000  -0.09364  -0.09365  -0.51181
    D6        2.62277  -0.00319   0.00000  -0.08874  -0.08872   2.53404
    D7       -0.02434   0.00182   0.00000  -0.00079  -0.00147  -0.02581
    D8       -2.99687  -0.00619   0.00000  -0.02345  -0.02276  -3.01963
    D9       -0.73747  -0.01212   0.00000  -0.13288  -0.13288  -0.87035
   D10        1.10645  -0.00400   0.00000  -0.25474  -0.25474   0.85171
   D11        0.82684   0.00659   0.00000  -0.00364  -0.00364   0.82320
         Item               Value     Threshold  Converged?
 Maximum Force            0.116117     0.000450     NO 
 RMS     Force            0.041873     0.000300     NO 
 Maximum Displacement     0.652104     0.001800     NO 
 RMS     Displacement     0.251501     0.001200     NO 
 Predicted change in Energy=-6.182164D-02
 GradGradGradGradGradGradGradGradGradGradGradGradGradGradGradGradGradGrad

                          Input orientation:                          
 ---------------------------------------------------------------------
 Center     Atomic      Atomic             Coordinates (Angstroms)
 Number     Number       Type             X           Y           Z
 ---------------------------------------------------------------------
      1          6           0      -31.028414  -13.834065   -3.526890
      2          6           0      -31.496500  -14.052708   -2.278671
      3          1           0      -29.980494  -13.904804   -3.803784
      4          1           0      -31.688436  -13.643458   -4.491682
      5          8           0      -32.774819  -14.032538   -1.763909
      6          1           0      -30.512395  -14.355373   -1.886933
      7          8           0      -34.222103  -13.801634   -2.052674
      8          1           0      -34.420796  -14.350475   -2.902875
      9          8           0      -32.573313  -13.655917   -5.272684
     10          8           0      -32.802987  -15.081381   -5.313307
     11          1           0      -32.813543  -15.274956   -4.296043
 ---------------------------------------------------------------------
                    Distance matrix (angstroms):
                    1          2          3          4          5
     1  C    0.000000
     2  C    1.350911   0.000000
     3  H    1.086191   2.155486   0.000000
     4  H    1.184392   2.258703   1.859724   0.000000
     5  O    2.489462   1.378218   3.462031   2.961816   0.000000
     6  H    1.796524   1.101603   2.039669   2.945270   2.288650
     7  O    3.517671   2.746457   4.590019   3.520404   1.493765
     8  H    3.487740   3.004963   4.552642   3.238823   2.026714
     9  O    2.338001   3.206413   2.990372   1.180308   3.534679
    10  O    2.810016   3.460359   3.410199   1.996225   3.701228
    11  H    2.419597   2.701533   3.185248   1.991464   2.820781
                    6          7          8          9         10
     6  H    0.000000
     7  O    3.754468   0.000000
     8  H    4.038288   1.031284   0.000000
     9  O    4.024915   3.620526   3.084088   0.000000
    10  O    4.184966   3.779334   2.993612   1.444420   0.000000
    11  H    3.456115   3.031076   2.319234   1.905998   1.035571
                   11
    11  H    0.000000
 Stoichiometry    C2H5O4(2)
 Framework group  C1[X(C2H5O4)]
 Deg. of freedom    27
 Full point group                 C1      NOp   1
 Largest Abelian subgroup         C1      NOp   1
 Largest concise Abelian subgroup C1      NOp   1
                         Standard orientation:                         
 ---------------------------------------------------------------------
 Center     Atomic      Atomic             Coordinates (Angstroms)
 Number     Number       Type             X           Y           Z
 ---------------------------------------------------------------------
      1          6           0        0.366059    1.465034   -0.193353
      2          6           0       -0.913456    1.220018    0.164093
      3          1           0        0.849759    2.432557   -0.094638
      4          1           0        1.151861    0.656502   -0.556087
      5          8           0       -1.667610    0.066853    0.133302
      6          1           0       -1.064428    2.228992    0.579673
      7          8           0       -1.698945   -1.382536   -0.226729
      8          1           0       -0.843664   -1.784051    0.186583
      9          8           0        1.739558   -0.355872   -0.707214
     10          8           0        1.908324   -0.714862    0.681668
     11          1           0        0.940232   -0.552972    1.011814
 ---------------------------------------------------------------------
 Rotational constants (GHZ):           4.2722956           2.1711996           1.6145568
 Standard basis: 6-311+G(2df,2p) (5D, 7F)
 There are   279 symmetry adapted cartesian basis functions of A   symmetry.
 There are   249 symmetry adapted basis functions of A   symmetry.
   249 basis functions,   367 primitive gaussians,   279 cartesian basis functions
    25 alpha electrons       24 beta electrons
       nuclear repulsion energy       233.4401604917 Hartrees.
 NAtoms=   11 NActive=   11 NUniq=   11 SFac= 1.00D+00 NAtFMM=   60 NAOKFM=F Big=F
 Integral buffers will be    131072 words long.
 Raffenetti 2 integral format.
 Two-electron integral symmetry is turned on.
 One-electron integrals computed using PRISM.
 NBasis=   249 RedAO= T EigKep=  7.70D-05  NBF=   249
 NBsUse=   249 1.00D-06 EigRej= -1.00D+00 NBFU=   249
 Initial guess from the checkpoint file:  "/scratch/dinius.ab/QMscratch/Gau-25157.chk"
 B after Tr=    -0.000000    0.000000   -0.000000
         Rot=    0.994123    0.000467   -0.021784   -0.106043 Ang=  12.43 deg.
 Initial guess <Sx>= 0.0000 <Sy>= 0.0000 <Sz>= 0.5000 <S**2>= 0.7626 S= 0.5063
 ExpMin= 4.38D-02 ExpMax= 8.59D+03 ExpMxC= 1.30D+03 IAcc=2 IRadAn=         4 AccDes= 0.00D+00
 Harris functional with IExCor= 1009 and IRadAn=       4 diagonalized for initial guess.
 HarFok:  IExCor= 1009 AccDes= 0.00D+00 IRadAn=         4 IDoV= 1 UseB2=F ITyADJ=14
 ICtDFT=  3500011 ScaDFX=  1.000000  1.000000  1.000000  1.000000
 FoFCou: FMM=F IPFlag=           0 FMFlag=      100000 FMFlg1=           0
         NFxFlg=           0 DoJE=T BraDBF=F KetDBF=T FulRan=T
         wScrn=  0.000000 ICntrl=       500 IOpCl=  0 I1Cent=   200000004 NGrid=           0
         NMat0=    1 NMatS0=      1 NMatT0=    0 NMatD0=    1 NMtDS0=    0 NMtDT0=    0
 Petite list used in FoFCou.
 Requested convergence on RMS density matrix=1.00D-08 within 128 cycles.
 Requested convergence on MAX density matrix=1.00D-06.
 Requested convergence on             energy=1.00D-06.
 No special actions if energy rises.
 Restarting incremental Fock formation.
 SCF Done:  E(UM062X) =  -379.674989163     A.U. after   21 cycles
            NFock= 21  Conv=0.66D-08     -V/T= 2.0040
 <Sx>= 0.0000 <Sy>= 0.0000 <Sz>= 0.5000 <S**2>= 0.7611 S= 0.5055
 <L.S>= 0.000000000000E+00
 Annihilation of the first spin contaminant:
 S**2 before annihilation     0.7611,   after     0.7501
 Calling FoFJK, ICntrl=      2127 FMM=F ISym2X=0 I1Cent= 0 IOpClX= 1 NMat=1 NMatS=1 NMatT=0.
 ***** Axes restored to original set *****
 -------------------------------------------------------------------
 Center     Atomic                   Forces (Hartrees/Bohr)
 Number     Number              X              Y              Z
 -------------------------------------------------------------------
      1        6          -0.003799675    0.000243524    0.024785079
      2        6          -0.009246674    0.021122885   -0.100716494
      3        1          -0.001517613   -0.000600184    0.004847676
      4        1           0.006882895    0.011213379    0.005792002
      5        8           0.017750185   -0.021689781    0.066611654
      6        1          -0.028470419   -0.006462443    0.050296199
      7        8           0.036480786   -0.020909525   -0.066131692
      8        1           0.011809235    0.026069958    0.037481277
      9        8          -0.031086137   -0.033713787   -0.022226207
     10        8           0.003012721    0.022522129    0.053315163
     11        1          -0.001815303    0.002203846   -0.054054656
 -------------------------------------------------------------------
 Cartesian Forces:  Max     0.100716494 RMS     0.033661883

 GradGradGradGradGradGradGradGradGradGradGradGradGradGradGradGradGradGrad
 Berny optimization.
 FormGI is forming the generalized inverse of G from B-inverse, IUseBI=4.
 Internal  Forces:  Max     0.114257756 RMS     0.032429992
 Search for a saddle point.
 Step number   3 out of a maximum of   42
 All quantities printed in internal units (Hartrees-Bohrs-Radians)
 Swapping is turned off.
 Update second derivatives using D2CorX and points    2    3
 ITU=  0  0  0
     Eigenvalues ---   -0.15881   0.00230   0.00462   0.01601   0.02081
     Eigenvalues ---    0.02264   0.02520   0.03622   0.12929   0.15973
     Eigenvalues ---    0.15999   0.16000   0.17394   0.20309   0.22015
     Eigenvalues ---    0.25948   0.30357   0.31224   0.32779   0.33050
     Eigenvalues ---    0.33939   0.34830   0.35539   0.36552   0.45089
     Eigenvalues ---    0.54698   0.85393
 Eigenvectors required to have negative eigenvalues:
                          D10       A10       D6        D5        A5
   1                   -0.91705  -0.22136  -0.14465  -0.13072  -0.12691
                          A6        A8        R10       R3        R6
   1                    0.09335   0.09134   0.08797  -0.07752  -0.07042
 RFO step:  Lambda0=9.557002441D-03 Lambda=-1.43442362D-01.
 Linear search not attempted -- option 19 set.
 Maximum step size (   0.300) exceeded in Quadratic search.
    -- Step size scaled by   0.398
 Iteration  1 RMS(Cart)=  0.19037308 RMS(Int)=  0.01494298
 Iteration  2 RMS(Cart)=  0.01895066 RMS(Int)=  0.00034259
 Iteration  3 RMS(Cart)=  0.00018659 RMS(Int)=  0.00031648
 Iteration  4 RMS(Cart)=  0.00000005 RMS(Int)=  0.00031648
 Variable       Old X    -DE/DX   Delta X   Delta X   Delta X     New X
                                 (Linear)    (Quad)   (Total)
    R1        2.55285  -0.02102   0.00000  -0.01675  -0.01675   2.53610
    R2        2.05260  -0.00266   0.00000  -0.00428  -0.00428   2.04832
    R3        2.23818   0.02717   0.00000   0.01719   0.01719   2.25536
    R4        2.60445  -0.04732   0.00000  -0.04692  -0.04692   2.55753
    R5        2.08173  -0.00577   0.00000  -0.01089  -0.01089   2.07083
    R6        2.23046   0.03770   0.00000   0.03856   0.03856   2.26902
    R7        2.82281  -0.04045   0.00000  -0.05780  -0.05780   2.76500
    R8        1.94884  -0.04705   0.00000  -0.05414  -0.05414   1.89471
    R9        2.72956  -0.02457   0.00000  -0.04640  -0.04640   2.68316
   R10        1.95695  -0.05349   0.00000  -0.06434  -0.06434   1.89261
    A1        2.16433   0.00195   0.00000   0.00528   0.00528   2.16960
    A2        2.19644  -0.01249   0.00000  -0.02589  -0.02589   2.17055
    A3        1.91820   0.01052   0.00000   0.02024   0.02023   1.93843
    A4        2.29711  -0.00870   0.00000   0.00363   0.00361   2.30072
    A5        1.63434   0.06427   0.00000   0.12167   0.12167   1.75601
    A6        2.34590  -0.05535   0.00000  -0.12363  -0.12373   2.22217
    A7        2.84077  -0.00062   0.00000  -0.02653  -0.02653   2.81424
    A8        2.54760  -0.11426   0.00000  -0.19626  -0.19626   2.35135
    A9        1.83773  -0.00454   0.00000   0.00934   0.00934   1.84707
   A10        1.71958   0.01937   0.00000  -0.04243  -0.04243   1.67714
   A11        1.72993   0.01608   0.00000   0.01837   0.01837   1.74830
    D1       -3.11645  -0.00135   0.00000  -0.01564  -0.01624  -3.13269
    D2       -0.08045  -0.00207   0.00000  -0.00763  -0.00705  -0.08750
    D3       -0.08350  -0.00104   0.00000  -0.01919  -0.01977  -0.10327
    D4        2.95250  -0.00175   0.00000  -0.01118  -0.01058   2.94192
    D5       -0.51181  -0.00432   0.00000  -0.06243  -0.06242  -0.57423
    D6        2.53404  -0.00428   0.00000  -0.06591  -0.06592   2.46812
    D7       -0.02581   0.00002   0.00000  -0.00918  -0.01013  -0.03594
    D8       -3.01963  -0.00765   0.00000  -0.03961  -0.03866  -3.05829
    D9       -0.87035  -0.00907   0.00000  -0.07976  -0.07976  -0.95011
   D10        0.85171  -0.00415   0.00000  -0.14212  -0.14212   0.70959
   D11        0.82320   0.00206   0.00000  -0.02857  -0.02857   0.79463
         Item               Value     Threshold  Converged?
 Maximum Force            0.114258     0.000450     NO 
 RMS     Force            0.032430     0.000300     NO 
 Maximum Displacement     0.501924     0.001800     NO 
 RMS     Displacement     0.192429     0.001200     NO 
 Predicted change in Energy=-5.113961D-02
 GradGradGradGradGradGradGradGradGradGradGradGradGradGradGradGradGradGrad

                          Input orientation:                          
 ---------------------------------------------------------------------
 Center     Atomic      Atomic             Coordinates (Angstroms)
 Number     Number       Type             X           Y           Z
 ---------------------------------------------------------------------
      1          6           0      -31.102042  -13.829690   -3.511694
      2          6           0      -31.511262  -14.079240   -2.258158
      3          1           0      -30.069797  -13.879200   -3.838673
      4          1           0      -31.834815  -13.632547   -4.432883
      5          8           0      -32.740425  -14.071979   -1.691797
      6          1           0      -30.570260  -14.403123   -1.799382
      7          8           0      -34.090564  -13.766103   -2.165562
      8          1           0      -34.155190  -14.164618   -3.083325
      9          8           0      -32.791439  -13.686637   -5.156522
     10          8           0      -32.790347  -15.098979   -5.302474
     11          1           0      -32.657658  -15.375195   -4.348981
 ---------------------------------------------------------------------
                    Distance matrix (angstroms):
                    1          2          3          4          5
     1  C    0.000000
     2  C    1.342046   0.000000
     3  H    1.083926   2.148456   0.000000
     4  H    1.193487   2.243580   1.878620   0.000000
     5  O    2.460697   1.353388   3.431981   2.920065   0.000000
     6  H    1.882453   1.095838   2.164178   3.021294   2.197920
     7  O    3.278319   2.599889   4.356449   3.201091   1.463177
     8  H    3.101191   2.771018   4.164426   2.736520   1.986577
     9  O    2.362199   3.192727   3.030039   1.200711   3.486460
    10  O    2.769182   3.455979   3.321441   1.954393   3.754226
    11  H    2.347249   2.713903   3.032399   1.928972   2.960718
                    6          7          8          9         10
     6  H    0.000000
     7  O    3.596168   0.000000
     8  H    3.815379   1.002636   0.000000
     9  O    4.088689   3.261883   2.527138   0.000000
    10  O    4.205314   3.647923   2.767752   1.419865   0.000000
    11  H    3.435493   3.067526   2.304340   1.876499   1.001524
                   11
    11  H    0.000000
 Stoichiometry    C2H5O4(2)
 Framework group  C1[X(C2H5O4)]
 Deg. of freedom    27
 Full point group                 C1      NOp   1
 Largest Abelian subgroup         C1      NOp   1
 Largest concise Abelian subgroup C1      NOp   1
                         Standard orientation:                         
 ---------------------------------------------------------------------
 Center     Atomic      Atomic             Coordinates (Angstroms)
 Number     Number       Type             X           Y           Z
 ---------------------------------------------------------------------
      1          6           0        0.168946    1.429312   -0.286048
      2          6           0       -1.062060    1.100875    0.135667
      3          1           0        0.571572    2.435578   -0.271371
      4          1           0        0.998783    0.640123   -0.622150
      5          8           0       -1.708905   -0.086459    0.194726
      6          1           0       -1.402646    2.063504    0.533420
      7          8           0       -1.379795   -1.458594   -0.192338
      8          1           0       -0.421551   -1.594293    0.069644
      9          8           0        1.653520   -0.364465   -0.684034
     10          8           0        1.998528   -0.404554    0.692693
     11          1           0        1.105747   -0.213466    1.104371
 ---------------------------------------------------------------------
 Rotational constants (GHZ):           4.5669868           2.2671116           1.7160336
 Standard basis: 6-311+G(2df,2p) (5D, 7F)
 There are   279 symmetry adapted cartesian basis functions of A   symmetry.
 There are   249 symmetry adapted basis functions of A   symmetry.
   249 basis functions,   367 primitive gaussians,   279 cartesian basis functions
    25 alpha electrons       24 beta electrons
       nuclear repulsion energy       238.5245341852 Hartrees.
 NAtoms=   11 NActive=   11 NUniq=   11 SFac= 1.00D+00 NAtFMM=   60 NAOKFM=F Big=F
 Integral buffers will be    131072 words long.
 Raffenetti 2 integral format.
 Two-electron integral symmetry is turned on.
 One-electron integrals computed using PRISM.
 NBasis=   249 RedAO= T EigKep=  7.19D-05  NBF=   249
 NBsUse=   249 1.00D-06 EigRej= -1.00D+00 NBFU=   249
 Initial guess from the checkpoint file:  "/scratch/dinius.ab/QMscratch/Gau-25157.chk"
 B after Tr=     0.000000    0.000000    0.000000
         Rot=    0.998035    0.029677   -0.006187   -0.054840 Ang=   7.19 deg.
 Initial guess <Sx>= 0.0000 <Sy>= 0.0000 <Sz>= 0.5000 <S**2>= 0.7612 S= 0.5056
 ExpMin= 4.38D-02 ExpMax= 8.59D+03 ExpMxC= 1.30D+03 IAcc=2 IRadAn=         4 AccDes= 0.00D+00
 Harris functional with IExCor= 1009 and IRadAn=       4 diagonalized for initial guess.
 HarFok:  IExCor= 1009 AccDes= 0.00D+00 IRadAn=         4 IDoV= 1 UseB2=F ITyADJ=14
 ICtDFT=  3500011 ScaDFX=  1.000000  1.000000  1.000000  1.000000
 FoFCou: FMM=F IPFlag=           0 FMFlag=      100000 FMFlg1=           0
         NFxFlg=           0 DoJE=T BraDBF=F KetDBF=T FulRan=T
         wScrn=  0.000000 ICntrl=       500 IOpCl=  0 I1Cent=   200000004 NGrid=           0
         NMat0=    1 NMatS0=      1 NMatT0=    0 NMatD0=    1 NMtDS0=    0 NMtDT0=    0
 Petite list used in FoFCou.
 Requested convergence on RMS density matrix=1.00D-08 within 128 cycles.
 Requested convergence on MAX density matrix=1.00D-06.
 Requested convergence on             energy=1.00D-06.
 No special actions if energy rises.
 SCF Done:  E(UM062X) =  -379.722908676     A.U. after   20 cycles
            NFock= 20  Conv=0.44D-08     -V/T= 2.0035
 <Sx>= 0.0000 <Sy>= 0.0000 <Sz>= 0.5000 <S**2>= 0.7606 S= 0.5053
 <L.S>= 0.000000000000E+00
 Annihilation of the first spin contaminant:
 S**2 before annihilation     0.7606,   after     0.7501
 Calling FoFJK, ICntrl=      2127 FMM=F ISym2X=0 I1Cent= 0 IOpClX= 1 NMat=1 NMatS=1 NMatT=0.
 ***** Axes restored to original set *****
 -------------------------------------------------------------------
 Center     Atomic                   Forces (Hartrees/Bohr)
 Number     Number              X              Y              Z
 -------------------------------------------------------------------
      1        6          -0.003310769    0.001981851    0.011912748
      2        6          -0.000715580    0.017082637   -0.075921861
      3        1          -0.000894294   -0.001023527    0.004454671
      4        1           0.012751234    0.015263449    0.013058068
      5        8           0.004566850   -0.018626881    0.049735127
      6        1          -0.024701856   -0.002988893    0.037104483
      7        8           0.038125662   -0.008012998   -0.042114040
      8        1           0.004887017    0.012347263    0.022730735
      9        8          -0.024378421   -0.027364529   -0.017858871
     10        8           0.000188535    0.012035011    0.026358562
     11        1          -0.006518376   -0.000693383   -0.029459623
 -------------------------------------------------------------------
 Cartesian Forces:  Max     0.075921861 RMS     0.024017187

 GradGradGradGradGradGradGradGradGradGradGradGradGradGradGradGradGradGrad
 Berny optimization.
 FormGI is forming the generalized inverse of G from B-inverse, IUseBI=4.
 Internal  Forces:  Max     0.098828925 RMS     0.026029710
 Search for a saddle point.
 Step number   4 out of a maximum of   42
 All quantities printed in internal units (Hartrees-Bohrs-Radians)
 Swapping is turned off.
 Update second derivatives using D2CorX and points    3    4
 ITU=  0  0  0  0
     Eigenvalues ---   -0.15468   0.00231   0.00390   0.01525   0.02090
     Eigenvalues ---    0.02376   0.02577   0.05822   0.14071   0.15969
     Eigenvalues ---    0.16000   0.16192   0.17545   0.20593   0.22895
     Eigenvalues ---    0.26295   0.30957   0.31396   0.32958   0.33185
     Eigenvalues ---    0.34068   0.34831   0.36456   0.37479   0.45753
     Eigenvalues ---    0.54752   0.85984
 Eigenvectors required to have negative eigenvalues:
                          D10       A10       A5        D6        A6
   1                    0.91187   0.18363   0.15607   0.13545  -0.12580
                          D5        A8        R10       R3        R8
   1                    0.12133  -0.11522  -0.11219   0.08259  -0.07408
 RFO step:  Lambda0=8.834708294D-03 Lambda=-1.01914117D-01.
 Linear search not attempted -- option 19 set.
 Maximum step size (   0.300) exceeded in Quadratic search.
    -- Step size scaled by   0.486
 Iteration  1 RMS(Cart)=  0.21312029 RMS(Int)=  0.02171940
 Iteration  2 RMS(Cart)=  0.04115618 RMS(Int)=  0.00074655
 Iteration  3 RMS(Cart)=  0.00097062 RMS(Int)=  0.00013361
 Iteration  4 RMS(Cart)=  0.00000104 RMS(Int)=  0.00013361
 Iteration  5 RMS(Cart)=  0.00000000 RMS(Int)=  0.00013361
 Variable       Old X    -DE/DX   Delta X   Delta X   Delta X     New X
                                 (Linear)    (Quad)   (Total)
    R1        2.53610  -0.01463   0.00000  -0.01267  -0.01267   2.52343
    R2        2.04832  -0.00215   0.00000  -0.00484  -0.00484   2.04348
    R3        2.25536   0.01700   0.00000   0.00208   0.00208   2.25744
    R4        2.55753  -0.03059   0.00000  -0.03216  -0.03216   2.52537
    R5        2.07083  -0.00479   0.00000  -0.01265  -0.01265   2.05818
    R6        2.26902   0.03782   0.00000   0.06477   0.06477   2.33379
    R7        2.76500  -0.03251   0.00000  -0.06007  -0.06007   2.70493
    R8        1.89471  -0.02603   0.00000  -0.02175  -0.02175   1.87296
    R9        2.68316  -0.01097   0.00000  -0.02596  -0.02596   2.65719
   R10        1.89261  -0.02872   0.00000  -0.01825  -0.01825   1.87436
    A1        2.16960   0.00260   0.00000   0.00929   0.00927   2.17888
    A2        2.17055  -0.01329   0.00000  -0.03873  -0.03875   2.13180
    A3        1.93843   0.01062   0.00000   0.02852   0.02850   1.96693
    A4        2.30072  -0.01200   0.00000  -0.00951  -0.00952   2.29120
    A5        1.75601   0.05163   0.00000   0.10856   0.10856   1.86458
    A6        2.22217  -0.03951   0.00000  -0.09812  -0.09815   2.12401
    A7        2.81424  -0.00035   0.00000  -0.03128  -0.03128   2.78296
    A8        2.35135  -0.09883   0.00000  -0.22680  -0.22680   2.12455
    A9        1.84707  -0.00431   0.00000   0.01172   0.01172   1.85879
   A10        1.67714   0.03285   0.00000   0.03161   0.03161   1.70876
   A11        1.74830   0.01689   0.00000   0.03458   0.03458   1.78288
    D1       -3.13269  -0.00158   0.00000  -0.01784  -0.01808   3.13241
    D2       -0.08750  -0.00159   0.00000  -0.01150  -0.01128  -0.09877
    D3       -0.10327  -0.00184   0.00000  -0.02734  -0.02756  -0.13083
    D4        2.94192  -0.00185   0.00000  -0.02100  -0.02076   2.92116
    D5       -0.57423  -0.00426   0.00000  -0.07535  -0.07532  -0.64955
    D6        2.46812  -0.00472   0.00000  -0.08422  -0.08425   2.38387
    D7       -0.03594  -0.00356   0.00000  -0.04484  -0.04526  -0.08120
    D8       -3.05829  -0.00832   0.00000  -0.06409  -0.06368  -3.12196
    D9       -0.95011  -0.00989   0.00000  -0.11274  -0.11274  -1.06285
   D10        0.70959  -0.00586   0.00000  -0.18687  -0.18687   0.52272
   D11        0.79463   0.00472   0.00000   0.00300   0.00300   0.79763
         Item               Value     Threshold  Converged?
 Maximum Force            0.098829     0.000450     NO 
 RMS     Force            0.026030     0.000300     NO 
 Maximum Displacement     0.714490     0.001800     NO 
 RMS     Displacement     0.242804     0.001200     NO 
 Predicted change in Energy=-4.157323D-02
 GradGradGradGradGradGradGradGradGradGradGradGradGradGradGradGradGradGrad

                          Input orientation:                          
 ---------------------------------------------------------------------
 Center     Atomic      Atomic             Coordinates (Angstroms)
 Number     Number       Type             X           Y           Z
 ---------------------------------------------------------------------
      1          6           0      -31.182454  -13.809095   -3.468994
      2          6           0      -31.530976  -14.095261   -2.212102
      3          1           0      -30.168509  -13.812015   -3.844838
      4          1           0      -31.992705  -13.638250   -4.330007
      5          8           0      -32.725093  -14.122180   -1.612735
      6          1           0      -30.626242  -14.420192   -1.700138
      7          8           0      -33.917926  -13.717648   -2.292714
      8          1           0      -33.777098  -13.919961   -3.252699
      9          8           0      -33.024450  -13.785142   -4.992669
     10          8           0      -32.823449  -15.124979   -5.369007
     11          1           0      -32.544898  -15.542586   -4.513546
[...]
 Alpha  occ. eigenvalues --   -0.86115  -0.70364  -0.69017  -0.62981  -0.62806
 Alpha  occ. eigenvalues --   -0.60481  -0.57142  -0.54353  -0.48480  -0.46158
 Alpha  occ. eigenvalues --   -0.45456  -0.41867  -0.41686  -0.38734  -0.29782
 Alpha virt. eigenvalues --    0.02051   0.02791   0.04484   0.04710   0.05752
 Alpha virt. eigenvalues --    0.06676   0.07365   0.09283   0.10948   0.11202
 Alpha virt. eigenvalues --    0.12284   0.14687   0.15645   0.16697   0.17720
 Alpha virt. eigenvalues --    0.18635   0.19376   0.20641   0.21690   0.22928
 Alpha virt. eigenvalues --    0.24014   0.25008   0.25572   0.26449   0.29415
 Alpha virt. eigenvalues --    0.29678   0.30317   0.33966   0.35100   0.36108
 Alpha virt. eigenvalues --    0.38235   0.41353   0.41970   0.45728   0.48469
 Alpha virt. eigenvalues --    0.50828   0.52009   0.53068   0.54969   0.57573
 Alpha virt. eigenvalues --    0.61250   0.62340   0.62725   0.66476   0.68146
 Alpha virt. eigenvalues --    0.69950   0.74701   0.75732   0.75923   0.77726
 Alpha virt. eigenvalues --    0.78745   0.80809   0.82241   0.84717   0.88595
 Alpha virt. eigenvalues --    0.95549   0.96599   0.98479   1.01357   1.03270
 Alpha virt. eigenvalues --    1.03923   1.05813   1.06229   1.08213   1.09819
 Alpha virt. eigenvalues --    1.11083   1.12379   1.15092   1.17747   1.19335
 Alpha virt. eigenvalues --    1.20768   1.24350   1.25835   1.27679   1.31261
 Alpha virt. eigenvalues --    1.31544   1.33618   1.36946   1.39147   1.41853
 Alpha virt. eigenvalues --    1.45736   1.47739   1.49023   1.49872   1.51911
 Alpha virt. eigenvalues --    1.53576   1.55069   1.59230   1.67751   1.68511
 Alpha virt. eigenvalues --    1.69079   1.76258   1.81324   1.82066   1.87894
 Alpha virt. eigenvalues --    2.00653   2.04790   2.07527   2.09538   2.17934
 Alpha virt. eigenvalues --    2.18410   2.20215   2.27686   2.30449   2.34059
 Alpha virt. eigenvalues --    2.49576   2.53040   2.54739   2.57039   2.62631
 Alpha virt. eigenvalues --    2.63689   2.69152   2.74476   2.75453   2.80725
 Alpha virt. eigenvalues --    2.83009   2.85971   2.86414   2.99117   3.00004
 Alpha virt. eigenvalues --    3.06126   3.13471   3.14959   3.20909   3.22843
 Alpha virt. eigenvalues --    3.25847   3.28661   3.35174   3.39832   3.43147
 Alpha virt. eigenvalues --    3.50771   3.54856   3.55855   3.61017   3.65499
 Alpha virt. eigenvalues --    3.66130   3.71347   3.72944   3.73986   3.76301
 Alpha virt. eigenvalues --    3.90772   4.01354   4.08719   4.09508   4.09852
 Alpha virt. eigenvalues --    4.15418   4.20642   4.22781   4.32329   4.35593
 Alpha virt. eigenvalues --    4.41433   4.46888   4.48630   4.56022   4.58993
 Alpha virt. eigenvalues --    4.61330   4.63836   4.64751   4.69894   4.78513
 Alpha virt. eigenvalues --    4.81481   4.91693   4.95752   4.96599   4.97412
 Alpha virt. eigenvalues --    5.03154   5.04533   5.10260   5.11147   5.11530
 Alpha virt. eigenvalues --    5.14386   5.15078   5.15510   5.17264   5.19065
 Alpha virt. eigenvalues --    5.21921   5.28611   5.33274   5.34799   5.35391
 Alpha virt. eigenvalues --    5.39698   5.51259   5.53482   5.54827   5.62747
 Alpha virt. eigenvalues --    5.65193   5.82638   5.89086   5.89901   6.05393
 Alpha virt. eigenvalues --    6.31660   6.34072   6.46628   6.63348   6.72294
 Alpha virt. eigenvalues --    6.75873   6.77268   6.78139   6.83555   6.86167
 Alpha virt. eigenvalues --    6.88566   6.90801   6.94246   7.01266   7.09689
 Alpha virt. eigenvalues --    7.12534   7.14218   7.21181   7.23665   7.31483
 Alpha virt. eigenvalues --    7.38708   7.43639   7.47243   7.74739   7.78676
 Alpha virt. eigenvalues --    7.81035   7.85936   8.02654  24.17745  24.91867
 Alpha virt. eigenvalues --   49.90499  49.94242  50.01806  50.10967
  Beta  occ. eigenvalues --  -19.77133 -19.72779 -19.71002 -19.68248 -10.60598
  Beta  occ. eigenvalues --  -10.53055  -1.34493  -1.28615  -1.05093  -0.97540
  Beta  occ. eigenvalues --   -0.86114  -0.70321  -0.67079  -0.62630  -0.58564
  Beta  occ. eigenvalues --   -0.56901  -0.54349  -0.52645  -0.48484  -0.46075
  Beta  occ. eigenvalues --   -0.45448  -0.39080  -0.38725  -0.29781
  Beta virt. eigenvalues --   -0.09610   0.02236   0.02881   0.04538   0.04808
  Beta virt. eigenvalues --    0.05807   0.06718   0.07411   0.09408   0.10994
  Beta virt. eigenvalues --    0.11499   0.12479   0.14885   0.15894   0.16710
  Beta virt. eigenvalues --    0.17721   0.18670   0.19615   0.21114   0.21973
  Beta virt. eigenvalues --    0.23355   0.24348   0.25022   0.25759   0.26575
  Beta virt. eigenvalues --    0.29483   0.29671   0.30336   0.34007   0.35086
  Beta virt. eigenvalues --    0.36129   0.37981   0.41127   0.41823   0.45744
  Beta virt. eigenvalues --    0.48735   0.50831   0.51995   0.53037   0.54970
  Beta virt. eigenvalues --    0.57586   0.61255   0.62295   0.62718   0.66502
  Beta virt. eigenvalues --    0.68208   0.70105   0.74734   0.75770   0.75967
  Beta virt. eigenvalues --    0.77733   0.78791   0.80949   0.82236   0.84723
  Beta virt. eigenvalues --    0.88729   0.95631   0.96670   1.00942   1.01812
  Beta virt. eigenvalues --    1.03479   1.04233   1.05929   1.08111   1.08306
  Beta virt. eigenvalues --    1.10624   1.11555   1.13209   1.15083   1.17781
  Beta virt. eigenvalues --    1.19403   1.20812   1.24430   1.26738   1.27833
  Beta virt. eigenvalues --    1.31597   1.33159   1.33823   1.37576   1.39241
  Beta virt. eigenvalues --    1.42499   1.46594   1.48165   1.49049   1.50636
  Beta virt. eigenvalues --    1.52029   1.53722   1.55226   1.62075   1.67795
  Beta virt. eigenvalues --    1.69018   1.69544   1.76504   1.81533   1.82902
  Beta virt. eigenvalues --    1.88108   2.00655   2.04916   2.08350   2.09643
  Beta virt. eigenvalues --    2.17963   2.20190   2.20609   2.27716   2.30569
  Beta virt. eigenvalues --    2.34091   2.49579   2.53073   2.55276   2.57047
  Beta virt. eigenvalues --    2.62858   2.63698   2.69152   2.74473   2.75453
  Beta virt. eigenvalues --    2.80726   2.83007   2.85946   2.86411   2.99107
  Beta virt. eigenvalues --    2.99994   3.06126   3.13470   3.14955   3.20904
  Beta virt. eigenvalues --    3.22843   3.25846   3.28655   3.35172   3.39829
  Beta virt. eigenvalues --    3.43145   3.50766   3.54865   3.56331   3.61015
  Beta virt. eigenvalues --    3.65482   3.66121   3.71392   3.72975   3.74184
  Beta virt. eigenvalues --    3.76393   3.90768   4.01360   4.08665   4.09446
  Beta virt. eigenvalues --    4.09851   4.15413   4.20632   4.22728   4.32327
  Beta virt. eigenvalues --    4.35589   4.44879   4.46900   4.48637   4.56301
  Beta virt. eigenvalues --    4.59207   4.62556   4.63866   4.64772   4.70227
  Beta virt. eigenvalues --    4.79061   4.81544   4.91701   4.98599   4.99131
  Beta virt. eigenvalues --    5.02125   5.04742   5.08402   5.10951   5.11300
  Beta virt. eigenvalues --    5.11946   5.14773   5.15096   5.15555   5.18579
  Beta virt. eigenvalues --    5.19357   5.22574   5.28648   5.33723   5.35021
  Beta virt. eigenvalues --    5.36206   5.39750   5.51258   5.54497   5.54963
  Beta virt. eigenvalues --    5.62911   5.65636   5.82639   5.89091   5.89902
  Beta virt. eigenvalues --    6.05393   6.34710   6.34757   6.46629   6.72070
  Beta virt. eigenvalues --    6.77129   6.78091   6.81731   6.82094   6.86203
  Beta virt. eigenvalues --    6.88208   6.89102   6.91381   6.97381   7.02806
  Beta virt. eigenvalues --    7.10113   7.12545   7.14334   7.24484   7.26552
  Beta virt. eigenvalues --    7.31485   7.38710   7.43640   7.47150   7.74890
  Beta virt. eigenvalues --    7.78697   7.81919   7.86931   8.02658  24.17744
  Beta virt. eigenvalues --   24.91867  49.90040  49.93736  50.01804  50.10967
          Condensed to atoms (all electrons):
               1          2          3          4          5          6
     1  C    5.253495   0.414026   0.388584   0.390166  -0.099067  -0.003091
     2  C    0.414026   5.197229  -0.020146  -0.028195   0.152794   0.405568
     3  H    0.388584  -0.020146   0.514289  -0.024309   0.006500  -0.005753
     4  H    0.390166  -0.028195  -0.024309   0.482351  -0.004697   0.004420
     5  O   -0.099067   0.152794   0.006500  -0.004697   7.931503  -0.050620
     6  H   -0.003091   0.405568  -0.005753   0.004420  -0.050620   0.486316
     7  O   -0.037355   0.059684   0.000149  -0.004243   0.102337   0.002586
     8  H    0.029485  -0.060350   0.000205   0.012292  -0.005462  -0.000116
     9  O   -0.012974   0.008544   0.000506   0.013168  -0.001902  -0.000063
    10  O    0.012072  -0.001160  -0.000305   0.003209   0.000054  -0.000009
    11  H   -0.000244  -0.000644   0.000006  -0.000051  -0.000007  -0.000000
               7          8          9         10         11
     1  C   -0.037355   0.029485  -0.012974   0.012072  -0.000244
     2  C    0.059684  -0.060350   0.008544  -0.001160  -0.000644
     3  H    0.000149   0.000205   0.000506  -0.000305   0.000006
     4  H   -0.004243   0.012292   0.013168   0.003209  -0.000051
     5  O    0.102337  -0.005462  -0.001902   0.000054  -0.000007
     6  H    0.002586  -0.000116  -0.000063  -0.000009  -0.000000
     7  O    7.884475   0.266241   0.016448  -0.002661  -0.000173
     8  H    0.266241   0.456423  -0.006587   0.001594   0.000159
     9  O    0.016448  -0.006587   8.040122   0.161140  -0.038844
    10  O   -0.002661   0.001594   0.161140   7.732387   0.195696
    11  H   -0.000173   0.000159  -0.038844   0.195696   0.544201
          Atomic-Atomic Spin Densities.
               1          2          3          4          5          6
     1  C   -0.005730   0.003491   0.000168   0.002149  -0.002053   0.000176
     2  C    0.003491  -0.003043   0.000036  -0.001547   0.002288  -0.000080
     3  H    0.000168   0.000036  -0.000290  -0.000037   0.000020   0.000013
     4  H    0.002149  -0.001547  -0.000037  -0.000044   0.000173   0.000003
     5  O   -0.002053   0.002288   0.000020   0.000173  -0.001766  -0.000036
     6  H    0.000176  -0.000080   0.000013   0.000003  -0.000036  -0.000044
     7  O    0.001619  -0.001898   0.000028   0.000207   0.001322  -0.000068
     8  H   -0.000677   0.000796  -0.000023  -0.000087  -0.000488   0.000004
     9  O    0.002663  -0.001468  -0.000004  -0.002336   0.000153   0.000003
    10  O   -0.000629   0.000496  -0.000003   0.000494   0.000003   0.000000
    11  H    0.000071  -0.000018  -0.000001  -0.000028  -0.000002   0.000000
               7          8          9         10         11
     1  C    0.001619  -0.000677   0.002663  -0.000629   0.000071
     2  C   -0.001898   0.000796  -0.001468   0.000496  -0.000018
     3  H    0.000028  -0.000023  -0.000004  -0.000003  -0.000001
     4  H    0.000207  -0.000087  -0.002336   0.000494  -0.000028
     5  O    0.001322  -0.000488   0.000153   0.000003  -0.000002
     6  H   -0.000068   0.000004   0.000003   0.000000   0.000000
     7  O   -0.000354   0.000528   0.001909   0.000087   0.000020
     8  H    0.000528  -0.001048  -0.003686   0.000029  -0.000020
     9  O    0.001909  -0.003686   0.909071  -0.163111   0.001936
    10  O    0.000087   0.000029  -0.163111   0.424580   0.004303
    11  H    0.000020  -0.000020   0.001936   0.004303  -0.015111
 Mulliken charges and spin densities:
               1          2
     1  C   -0.335099   0.001248
     2  C   -0.127350  -0.000947
     3  H    0.140274  -0.000092
     4  H    0.155889  -0.001052
     5  O   -0.031433  -0.000385
     6  H    0.160762  -0.000029
     7  O   -0.287489   0.003399
     8  H    0.306117  -0.004673
     9  O   -0.179557   0.745130
    10  O   -0.102016   0.266250
    11  H    0.299902  -0.008849
 Sum of Mulliken charges =  -0.00000   1.00000
 Mulliken charges and spin densities with hydrogens summed into heavy atoms:
               1          2
     1  C   -0.038935   0.000104
     2  C    0.033412  -0.000976
     5  O   -0.031433  -0.000385
     7  O    0.018628  -0.001274
     9  O   -0.179557   0.745130
    10  O    0.197885   0.257401
 Electronic spatial extent (au):  <R**2>=            896.9879
 Charge=             -0.0000 electrons
 Dipole moment (field-independent basis, Debye):
    X=              3.6007    Y=              2.3815    Z=             -0.1157  Tot=              4.3186
 Quadrupole moment (field-independent basis, Debye-Ang):
   XX=            -18.8131   YY=            -38.0320   ZZ=            -37.7195
   XY=             -3.3350   XZ=             -0.9243   YZ=              0.3529
 Traceless Quadrupole moment (field-independent basis, Debye-Ang):
   XX=             12.7084   YY=             -6.5105   ZZ=             -6.1979
   XY=             -3.3350   XZ=             -0.9243   YZ=              0.3529
 Octapole moment (field-independent basis, Debye-Ang**2):
  XXX=             75.6076  YYY=              0.1590  ZZZ=             -0.2173  XYY=              2.9338
  XXY=              9.5725  XXZ=             -1.0600  XZZ=              6.8333  YZZ=             -5.0868
  YYZ=              0.1974  XYZ=              0.6255
 Hexadecapole moment (field-independent basis, Debye-Ang**3):
 XXXX=           -449.4080 YYYY=           -234.3651 ZZZZ=            -39.2053 XXXY=             -1.7832
 XXXZ=             -9.6534 YYYX=              2.0689 YYYZ=              0.4540 ZZZX=              0.6064
 ZZZY=             -0.5532 XXYY=           -173.9852 XXZZ=           -140.4825 YYZZ=            -52.1523
 XXYZ=              2.6531 YYXZ=             -1.5384 ZZXY=              5.6031
 N-N= 2.271882802095D+02 E-N=-1.348976463204D+03  KE= 3.787447458342D+02
                          Isotropic Fermi Contact Couplings
        Atom                 a.u.       MegaHertz       Gauss      10(-4) cm-1
     1  C(13)             -0.00088      -0.98590      -0.35179      -0.32886
     2  C(13)             -0.00001      -0.01110      -0.00396      -0.00370
     3  H(1)              -0.00002      -0.10444      -0.03727      -0.03484
     4  H(1)               0.00009       0.39073       0.13942       0.13033
     5  O(17)              0.00008      -0.05102      -0.01821      -0.01702
     6  H(1)              -0.00000      -0.02037      -0.00727      -0.00679
     7  O(17)             -0.00048       0.29336       0.10468       0.09785
     8  H(1)               0.00018       0.78946       0.28170       0.26333
     9  O(17)              0.11253     -68.21782     -24.34182     -22.75502
    10  O(17)              0.06257     -37.92986     -13.53432     -12.65204
    11  H(1)              -0.00653     -29.19305     -10.41681      -9.73775
 --------------------------------------------------------
       Center         ----  Spin Dipole Couplings  ----
                      3XX-RR        3YY-RR        3ZZ-RR
 --------------------------------------------------------
     1   Atom        0.002758     -0.000468     -0.002289
     2   Atom        0.003009     -0.001404     -0.001605
     3   Atom        0.001261      0.000476     -0.001737
     4   Atom        0.007645     -0.000328     -0.007317
     5   Atom        0.002166     -0.002134     -0.000032
     6   Atom        0.001599     -0.000693     -0.000906
     7   Atom        0.005907     -0.007349      0.001442
     8   Atom        0.018757     -0.009856     -0.008901
     9   Atom       -1.596504     -1.127371      2.723875
    10   Atom       -0.740649     -0.595157      1.335806
    11   Atom        0.069744     -0.041235     -0.028509
 --------------------------------------------------------
                        XY            XZ            YZ
 --------------------------------------------------------
     1   Atom       -0.003063      0.000513     -0.000292
     2   Atom       -0.001364      0.000140     -0.000041
     3   Atom       -0.002594      0.000073     -0.000086
     4   Atom       -0.009887      0.001638     -0.001311
     5   Atom       -0.000119     -0.002116      0.000590
     6   Atom       -0.000746      0.000031     -0.000011
     7   Atom        0.000542     -0.000970     -0.002480
     8   Atom        0.001200      0.002831      0.000467
     9   Atom       -0.003560      0.073805      1.445611
    10   Atom       -0.009009      0.055977      0.712671
    11   Atom       -0.015310      0.002655      0.004903
 --------------------------------------------------------


 ---------------------------------------------------------------------------------
              Anisotropic Spin Dipole Couplings in Principal Axis System
 ---------------------------------------------------------------------------------

       Atom             a.u.   MegaHertz   Gauss  10(-4) cm-1        Axes

              Baa    -0.0023    -0.315    -0.112    -0.105 -0.2943 -0.3410  0.8928
     1 C(13)  Bbb    -0.0023    -0.310    -0.111    -0.103  0.4307  0.7866  0.4424
              Bcc     0.0047     0.625     0.223     0.208  0.8532 -0.5147  0.0847
 
              Baa    -0.0018    -0.240    -0.086    -0.080  0.2730  0.9620  0.0082
     2 C(13)  Bbb    -0.0016    -0.216    -0.077    -0.072 -0.0302  0.0001  0.9995
              Bcc     0.0034     0.456     0.163     0.152  0.9615 -0.2731  0.0291
 
              Baa    -0.0018    -0.942    -0.336    -0.314  0.5372  0.6424  0.5466
     3 H(1)   Bbb    -0.0017    -0.922    -0.329    -0.308 -0.3700 -0.4029  0.8371
              Bcc     0.0035     1.864     0.665     0.622  0.7580 -0.6519  0.0213
 
              Baa    -0.0076    -4.038    -1.441    -1.347  0.0845  0.2881  0.9539
     4 H(1)   Bbb    -0.0070    -3.709    -1.324    -1.237  0.5593  0.7786 -0.2847
              Bcc     0.0145     7.747     2.764     2.584  0.8247 -0.5575  0.0953
 
              Baa    -0.0024     0.170     0.061     0.057 -0.1487  0.9175 -0.3690
     5 O(17)  Bbb    -0.0011     0.082     0.029     0.027  0.5072  0.3911  0.7680
              Bcc     0.0035    -0.252    -0.090    -0.084  0.8489 -0.0730 -0.5235
 
              Baa    -0.0009    -0.488    -0.174    -0.163  0.2768  0.9403  0.1981
     6 H(1)   Bbb    -0.0009    -0.484    -0.173    -0.161 -0.0677 -0.1866  0.9801
              Bcc     0.0018     0.972     0.347     0.324  0.9585 -0.2847  0.0120
 
              Baa    -0.0080     0.579     0.207     0.193 -0.0201  0.9676  0.2519
     7 O(17)  Bbb     0.0018    -0.131    -0.047    -0.044  0.2536 -0.2387  0.9374
              Bcc     0.0062    -0.448    -0.160    -0.150  0.9671  0.0827 -0.2406
 
              Baa    -0.0100    -5.360    -1.913    -1.788 -0.0020  0.9277 -0.3733
     8 H(1)   Bbb    -0.0091    -4.829    -1.723    -1.611 -0.1099  0.3708  0.9222
              Bcc     0.0191    10.189     3.636     3.399  0.9939  0.0428  0.1012
 
              Baa    -1.6310   118.015    42.111    39.366  0.6240  0.7384 -0.2557
     9 O(17)  Bbb    -1.5761   114.049    40.695    38.043  0.7813 -0.5955  0.1868
              Bcc     3.2071  -232.064   -82.806   -77.408  0.0143  0.3163  0.9485
 
              Baa    -0.8368    60.553    21.607    20.198  0.2642  0.9144 -0.3067
    10 O(17)  Bbb    -0.7346    53.156    18.967    17.731  0.9642 -0.2576  0.0626
              Bcc     1.5714  -113.709   -40.574   -37.929  0.0218  0.3123  0.9497
 
              Baa    -0.0450   -23.991    -8.561    -8.003  0.1330  0.9438 -0.3026
    11 H(1)   Bbb    -0.0269   -14.348    -5.120    -4.786  0.0217  0.3025  0.9529
              Bcc     0.0719    38.339    13.680    12.789  0.9909 -0.1333  0.0197
 

 ---------------------------------------------------------------------------------



 WE LEARN WISDOM FROM FAILURE MUCH MORE THAN FROM SUCCESS.
 WE DISCOVER WHAT WILL DO BY FINDING OUT WHAT WILL NOT DO...
 AND HE WHO NEVER MADE A MISTAKE NEVER MADE A DISCOVERY
 Error termination request processed by link 9999.
 Error termination via Lnk1e in /shared/centos7/gaussian/g16/l9999.exe at Tue Oct 23 17:04:38 2018.
 Job cpu time:       0 days  6 hours 46 minutes  2.3 seconds.
 Elapsed time:       0 days  6 hours 46 minutes 11.1 seconds.
 File lengths (MBytes):  RWF=    304 Int=      0 D2E=      0 Chk=     32 Scr=     32
