 Entering Gaussian System, Link 0=g16
 Input=practice1tight.com
 Output=practice1tight.log
 Initial command:
 /shared/centos7/gaussian/g16/l1.exe "/scratch/dinius.ab/QMscratch/Gau-44743.inp" -scrdir="/scratch/dinius.ab/QMscratch/"
 Entering Link 1 = /shared/centos7/gaussian/g16/l1.exe PID=     44744.
  
 Copyright (c) 1988,1990,1992,1993,1995,1998,2003,2009,2016,
            Gaussian, Inc.  All Rights Reserved.
  
 This is part of the Gaussian(R) 16 program.  It is based on
 the Gaussian(R) 09 system (copyright 2009, Gaussian, Inc.),
 the Gaussian(R) 03 system (copyright 2003, Gaussian, Inc.),
 the Gaussian(R) 98 system (copyright 1998, Gaussian, Inc.),
 the Gaussian(R) 94 system (copyright 1995, Gaussian, Inc.),
 the Gaussian 92(TM) system (copyright 1992, Gaussian, Inc.),
 the Gaussian 90(TM) system (copyright 1990, Gaussian, Inc.),
 the Gaussian 88(TM) system (copyright 1988, Gaussian, Inc.),
 the Gaussian 86(TM) system (copyright 1986, Carnegie Mellon
 University), and the Gaussian 82(TM) system (copyright 1983,
 Carnegie Mellon University). Gaussian is a federally registered
 trademark of Gaussian, Inc.
  
 This software contains proprietary and confidential information,
 including trade secrets, belonging to Gaussian, Inc.
  
 This software is provided under written license and may be
 used, copied, transmitted, or stored only in accord with that
 written license.
  
 The following legend is applicable only to US Government
 contracts under FAR:
  
                    RESTRICTED RIGHTS LEGEND
  
 Use, reproduction and disclosure by the US Government is
 subject to restrictions as set forth in subparagraphs (a)
 and (c) of the Commercial Computer Software - Restricted
 Rights clause in FAR 52.227-19.
  
 Gaussian, Inc.
 340 Quinnipiac St., Bldg. 40, Wallingford CT 06492
  
  
 ---------------------------------------------------------------
 Warning -- This program may not be used in any manner that
 competes with the business of Gaussian, Inc. or will provide
 assistance to any competitor of Gaussian, Inc.  The licensee
 of this program is prohibited from giving any competitor of
 Gaussian, Inc. access to this program.  By using this program,
 the user acknowledges that Gaussian, Inc. is engaged in the
 business of creating and licensing software in the field of
 computational chemistry and represents and warrants to the
 licensee that it is not a competitor of Gaussian, Inc. and that
 it will not use this program in any manner prohibited above.
 ---------------------------------------------------------------
  

 Cite this work as:
 Gaussian 16, Revision A.03,
 M. J. Frisch, G. W. Trucks, H. B. Schlegel, G. E. Scuseria, 
 M. A. Robb, J. R. Cheeseman, G. Scalmani, V. Barone, 
 G. A. Petersson, H. Nakatsuji, X. Li, M. Caricato, A. V. Marenich, 
 J. Bloino, B. G. Janesko, R. Gomperts, B. Mennucci, H. P. Hratchian, 
 J. V. Ortiz, A. F. Izmaylov, J. L. Sonnenberg, D. Williams-Young, 
 F. Ding, F. Lipparini, F. Egidi, J. Goings, B. Peng, A. Petrone, 
 T. Henderson, D. Ranasinghe, V. G. Zakrzewski, J. Gao, N. Rega, 
 G. Zheng, W. Liang, M. Hada, M. Ehara, K. Toyota, R. Fukuda, 
 J. Hasegawa, M. Ishida, T. Nakajima, Y. Honda, O. Kitao, H. Nakai, 
 T. Vreven, K. Throssell, J. A. Montgomery, Jr., J. E. Peralta, 
 F. Ogliaro, M. J. Bearpark, J. J. Heyd, E. N. Brothers, K. N. Kudin, 
 V. N. Staroverov, T. A. Keith, R. Kobayashi, J. Normand, 
 K. Raghavachari, A. P. Rendell, J. C. Burant, S. S. Iyengar, 
 J. Tomasi, M. Cossi, J. M. Millam, M. Klene, C. Adamo, R. Cammi, 
 J. W. Ochterski, R. L. Martin, K. Morokuma, O. Farkas, 
 J. B. Foresman, and D. J. Fox, Gaussian, Inc., Wallingford CT, 2016.
 
 ******************************************
 Gaussian 16:  EM64L-G16RevA.03 25-Dec-2016
                29-Oct-2018 
 ******************************************
 ----------------------------------------------------------------------
 #m062x/6-311+g(2df,2p) Opt=(ts,calcfc,noeigentest,ModRedun,maxcycle=10
 00) freq
 ----------------------------------------------------------------------
 1/5=1,6=1000,10=4,11=1,18=120,26=3,38=1/1,3;
 2/9=110,12=2,17=6,18=5,40=1/2;
 3/5=4,6=6,7=214,11=2,25=1,30=1,71=2,74=-55,140=1/1,2,3;
 4//1;
 5/5=2,38=5/2;
 8/6=4,10=90,11=11/1;
 11/6=1,8=1,9=11,15=111,16=1/1,2,10;
 10/6=1,13=1/2;
 6/7=2,8=2,9=2,10=2,28=1/1;
 7/10=1,18=20,25=1/1,2,3,16;
 1/5=1,6=1000,10=4,11=1,18=20,26=3/3(2);
 2/9=110/2;
 99//99;
 2/9=110/2;
 3/5=4,6=6,7=214,11=2,25=1,30=1,71=1,74=-55/1,2,3;
 4/5=5,16=3,69=1/1;
 5/5=2,38=5/2;
 7//1,2,3,16;
 1/5=1,6=1000,11=1,18=20,26=3/3(-5);
 2/9=110/2;
 6/7=2,8=2,9=2,10=2,19=2,28=1/1;
 99/9=1/99;
 -----
 Title
 -----
 Symbolic Z-matrix:
 Charge =  0 Multiplicity = 1
 O                     0.26715   0.78616  -0.00679 
 O                     1.10537  -0.44176   0.00613 
 H                    -0.63824   0.38822   0.05149 
 H                     0.31743  -1.03916  -0.04147 
 O                    -1.33243  -0.26304  -0.0006 
 
 The following ModRedundant input section has been read:
 

 GradGradGradGradGradGradGradGradGradGradGradGradGradGradGradGradGradGrad
 Berny optimization.
 Initialization pass.
                           ----------------------------
                           !    Initial Parameters    !
                           ! (Angstroms and Degrees)  !
 --------------------------                            --------------------------
 ! Name  Definition              Value          Derivative Info.                !
 --------------------------------------------------------------------------------
 ! R1    R(1,2)                  1.4868         calculate D2E/DX2 analytically  !
 ! R2    R(1,3)                  0.9907         calculate D2E/DX2 analytically  !
 ! R3    R(2,4)                  0.99           calculate D2E/DX2 analytically  !
 ! R4    R(3,5)                  0.9533         calculate D2E/DX2 analytically  !
 ! A1    A(2,1,3)              100.5434         calculate D2E/DX2 analytically  !
 ! A2    A(1,2,4)               92.8225         calculate D2E/DX2 analytically  !
 ! A3    A(1,3,5)              159.505          calculate D2E/DX2 analytically  !
 ! D1    D(3,1,2,4)              6.3075         calculate D2E/DX2 analytically  !
 ! D2    D(2,1,3,5)            -19.4358         calculate D2E/DX2 analytically  !
 --------------------------------------------------------------------------------
 Trust Radius=3.00D-01 FncErr=1.00D-07 GrdErr=1.00D-06 EigMax=2.50D+02 EigMin=1.00D-04
 Number of steps in this run=    100 maximum allowed number of steps=    100.
 Search for a saddle point of order  1.
 GradGradGradGradGradGradGradGradGradGradGradGradGradGradGradGradGradGrad

                          Input orientation:                          
 ---------------------------------------------------------------------
 Center     Atomic      Atomic             Coordinates (Angstroms)
 Number     Number       Type             X           Y           Z
 ---------------------------------------------------------------------
      1          8           0        0.267150    0.786160   -0.006790
      2          8           0        1.105370   -0.441760    0.006130
      3          1           0       -0.638240    0.388220    0.051490
      4          1           0        0.317430   -1.039160   -0.041470
      5          8           0       -1.332430   -0.263040   -0.000600
 ---------------------------------------------------------------------
                    Distance matrix (angstroms):
                    1          2          3          4          5
     1  O    0.000000
     2  O    1.486798   0.000000
     3  H    0.990699   1.931606   0.000000
     4  H    1.826342   0.989950   1.720279   0.000000
     5  O    1.912986   2.444352   0.953285   1.823752   0.000000
 Stoichiometry    H2O3
 Framework group  C1[X(H2O3)]
 Deg. of freedom     9
 Full point group                 C1      NOp   1
 Largest Abelian subgroup         C1      NOp   1
 Largest concise Abelian subgroup C1      NOp   1
                         Standard orientation:                         
 ---------------------------------------------------------------------
 Center     Atomic      Atomic             Coordinates (Angstroms)
 Number     Number       Type             X           Y           Z
 ---------------------------------------------------------------------
      1          8           0        0.267150    0.786163   -0.006788
      2          8           0        1.105375   -0.441753    0.006132
      3          1           0       -0.638238    0.388220    0.051492
      4          1           0        0.317437   -1.039156   -0.041468
      5          8           0       -1.332426   -0.263043   -0.000598
 ---------------------------------------------------------------------
 Rotational constants (GHZ):          32.9411287          10.1877187           7.7825230
 Standard basis: 6-311+G(2df,2p) (5D, 7F)
 There are   135 symmetry adapted cartesian basis functions of A   symmetry.
 There are   120 symmetry adapted basis functions of A   symmetry.
   120 basis functions,   178 primitive gaussians,   135 cartesian basis functions
    13 alpha electrons       13 beta electrons
       nuclear repulsion energy        74.4669226700 Hartrees.
 NAtoms=    5 NActive=    5 NUniq=    5 SFac= 1.00D+00 NAtFMM=   60 NAOKFM=F Big=F
 Integral buffers will be    131072 words long.
 Raffenetti 2 integral format.
 Two-electron integral symmetry is turned on.
 One-electron integrals computed using PRISM.
 NBasis=   120 RedAO= T EigKep=  6.17D-04  NBF=   120
 NBsUse=   120 1.00D-06 EigRej= -1.00D+00 NBFU=   120
 ExpMin= 8.45D-02 ExpMax= 8.59D+03 ExpMxC= 1.30D+03 IAcc=3 IRadAn=         5 AccDes= 0.00D+00
 Harris functional with IExCor= 1009 and IRadAn=       5 diagonalized for initial guess.
 HarFok:  IExCor= 1009 AccDes= 0.00D+00 IRadAn=         5 IDoV= 1 UseB2=F ITyADJ=14
 ICtDFT=  3500011 ScaDFX=  1.000000  1.000000  1.000000  1.000000
 FoFCou: FMM=F IPFlag=           0 FMFlag=      100000 FMFlg1=           0
         NFxFlg=           0 DoJE=T BraDBF=F KetDBF=T FulRan=T
         wScrn=  0.000000 ICntrl=       500 IOpCl=  0 I1Cent=   200000004 NGrid=           0
         NMat0=    1 NMatS0=      1 NMatT0=    0 NMatD0=    1 NMtDS0=    0 NMtDT0=    0
 Petite list used in FoFCou.
 Keep R1 ints in memory in canonical form, NReq=28336113.
 Requested convergence on RMS density matrix=1.00D-08 within 128 cycles.
 Requested convergence on MAX density matrix=1.00D-06.
 Requested convergence on             energy=1.00D-06.
 No special actions if energy rises.
 Integral accuracy reduced to 1.0D-05 until final iterations.
 Rare condition: small coef for last iteration:  0.000D+00
 Rare condition: small coef for last iteration:  0.000D+00
 Problem detected with inexpensive integrals.
 Switching to full accuracy and repeating last cycle.
 Rare condition: small coef for last iteration:  0.000D+00
 EnCoef did   100 forward-backward iterations
 Rare condition: small coef for last iteration:  0.000D+00
 Rare condition: small coef for last iteration:  0.000D+00
 Rare condition: small coef for last iteration:  0.000D+00
 Rare condition: small coef for last iteration:  0.000D+00
 SCF Done:  E(RM062X) =  -226.435009083     A.U. after   38 cycles
            NFock= 38  Conv=0.57D-08     -V/T= 2.0001
 DoSCS=F DFT=T ScalE2(SS,OS)=  1.000000  1.000000
 Range of M.O.s used for correlation:     1   120
 NBasis=   120 NAE=    13 NBE=    13 NFC=     0 NFV=     0
 NROrb=    120 NOA=    13 NOB=    13 NVA=   107 NVB=   107

 **** Warning!!: The largest alpha MO coefficient is  0.18260013D+02

 Symmetrizing basis deriv contribution to polar:
 IMax=3 JMax=2 DiffMx= 0.00D+00
 G2DrvN: will do     6 centers at a time, making    1 passes.
 Calling FoFCou, ICntrl=  3107 FMM=F I1Cent=   0 AccDes= 0.00D+00.
 End of G2Drv F.D. properties file   721 does not exist.
 End of G2Drv F.D. properties file   722 does not exist.
 End of G2Drv F.D. properties file   788 does not exist.
          IDoAtm=11111
          Differentiating once with respect to nuclear coordinates.
 Keep R1 ints in memory in canonical form, NReq=28338371.
          There are    18 degrees of freedom in the 1st order CPHF.  IDoFFX=6 NUNeed=     0.
     12 vectors produced by pass  0 Test12= 7.73D-15 5.56D-09 XBig12= 1.17D-01 2.26D-01.
 AX will form    12 AO Fock derivatives at one time.
     12 vectors produced by pass  1 Test12= 7.73D-15 5.56D-09 XBig12= 6.58D-02 1.06D-01.
     12 vectors produced by pass  2 Test12= 7.73D-15 5.56D-09 XBig12= 3.66D-03 1.58D-02.
     12 vectors produced by pass  3 Test12= 7.73D-15 5.56D-09 XBig12= 1.06D-04 2.51D-03.
     12 vectors produced by pass  4 Test12= 7.73D-15 5.56D-09 XBig12= 1.81D-06 2.88D-04.
     12 vectors produced by pass  5 Test12= 7.73D-15 5.56D-09 XBig12= 1.48D-08 2.92D-05.
     12 vectors produced by pass  6 Test12= 7.73D-15 5.56D-09 XBig12= 9.10D-11 2.28D-06.
      7 vectors produced by pass  7 Test12= 7.73D-15 5.56D-09 XBig12= 5.61D-13 1.47D-07.
      1 vectors produced by pass  8 Test12= 7.73D-15 5.56D-09 XBig12= 2.09D-15 7.74D-09.
 InvSVY:  IOpt=1 It=  1 EMax= 7.77D-16
 Solved reduced A of dimension    92 with    12 vectors.
 End of Minotr F.D. properties file   721 does not exist.
 End of Minotr F.D. properties file   722 does not exist.
 End of Minotr F.D. properties file   788 does not exist.

 **********************************************************************

            Population analysis using the SCF density.

 **********************************************************************

 Orbital symmetries:
       Occupied  (A) (A) (A) (A) (A) (A) (A) (A) (A) (A) (A) (A)
                 (A)
       Virtual   (A) (A) (A) (A) (A) (A) (A) (A) (A) (A) (A) (A)
                 (A) (A) (A) (A) (A) (A) (A) (A) (A) (A) (A) (A)
                 (A) (A) (A) (A) (A) (A) (A) (A) (A) (A) (A) (A)
                 (A) (A) (A) (A) (A) (A) (A) (A) (A) (A) (A) (A)
                 (A) (A) (A) (A) (A) (A) (A) (A) (A) (A) (A) (A)
                 (A) (A) (A) (A) (A) (A) (A) (A) (A) (A) (A) (A)
                 (A) (A) (A) (A) (A) (A) (A) (A) (A) (A) (A) (A)
                 (A) (A) (A) (A) (A) (A) (A) (A) (A) (A) (A) (A)
                 (A) (A) (A) (A) (A) (A) (A) (A) (A) (A) (A)
 The electronic state is 1-A.
 Alpha  occ. eigenvalues --  -19.77313 -19.76336 -19.70062  -1.32800  -1.15765
 Alpha  occ. eigenvalues --   -1.03789  -0.70276  -0.58851  -0.57922  -0.54858
 Alpha  occ. eigenvalues --   -0.44185  -0.40425  -0.40040
 Alpha virt. eigenvalues --   -0.22519  -0.00848   0.06371   0.11922   0.13260
 Alpha virt. eigenvalues --    0.13894   0.16710   0.17702   0.19745   0.20121
 Alpha virt. eigenvalues --    0.21074   0.21665   0.26072   0.32794   0.36419
 Alpha virt. eigenvalues --    0.42062   0.48554   0.65994   0.68686   0.78347
 Alpha virt. eigenvalues --    0.81678   0.84970   0.92794   0.94669   0.97210
 Alpha virt. eigenvalues --    0.97643   1.03166   1.04950   1.07658   1.09008
 Alpha virt. eigenvalues --    1.13705   1.25662   1.35779   1.37039   1.47700
 Alpha virt. eigenvalues --    1.48630   1.53140   1.54837   1.63211   1.69898
 Alpha virt. eigenvalues --    1.78940   1.83651   2.01262   2.03930   2.16998
 Alpha virt. eigenvalues --    2.23763   2.27502   2.34442   2.42376   2.53488
 Alpha virt. eigenvalues --    2.60196   2.70454   2.95495   3.48881   3.58831
 Alpha virt. eigenvalues --    3.70643   3.78523   4.03981   4.24274   4.42772
 Alpha virt. eigenvalues --    4.48006   4.64447   4.73395   4.91089   4.93797
 Alpha virt. eigenvalues --    4.94769   4.97928   4.98155   4.99862   5.01341
 Alpha virt. eigenvalues --    5.01446   5.04265   5.08077   5.08478   5.15160
 Alpha virt. eigenvalues --    5.17810   5.19793   5.36384   5.40256   5.46879
 Alpha virt. eigenvalues --    5.59048   5.72135   5.85996   6.00687   6.10745
 Alpha virt. eigenvalues --    6.42052   6.60722   6.62987   6.69359   6.76364
 Alpha virt. eigenvalues --    6.79168   6.87825   6.91649   6.96984   7.08515
 Alpha virt. eigenvalues --    7.10437   7.17785   7.22442   7.27312   7.40853
 Alpha virt. eigenvalues --    7.46304   7.68436   7.97855   8.38707  49.87747
 Alpha virt. eigenvalues --   49.90251  50.11899
          Condensed to atoms (all electrons):
               1          2          3          4          5
     1  O    7.857237   0.208986   0.092728  -0.032488   0.006666
     2  O    0.208986   7.743627  -0.022555   0.239858  -0.045350
     3  H    0.092728  -0.022555   0.434339  -0.019734   0.198790
     4  H   -0.032488   0.239858  -0.019734   0.486536   0.057746
     5  O    0.006666  -0.045350   0.198790   0.057746   8.108967
 Mulliken charges:
               1
     1  O   -0.133130
     2  O   -0.124565
     3  H    0.316431
     4  H    0.268083
     5  O   -0.326819
 Sum of Mulliken charges =  -0.00000
 Mulliken charges with hydrogens summed into heavy atoms:
               1
     1  O   -0.133130
     2  O    0.143518
     5  O   -0.010388
 APT charges:
               1
     1  O   -0.208908
     2  O   -0.214279
     3  H    0.392268
     4  H    0.385776
     5  O   -0.354858
 Sum of APT charges =  -0.00000
 APT charges with hydrogens summed into heavy atoms:
               1
     1  O   -0.208908
     2  O    0.171497
     5  O    0.037411
 Electronic spatial extent (au):  <R**2>=            159.7638
 Charge=             -0.0000 electrons
 Dipole moment (field-independent basis, Debye):
    X=              0.2552    Y=             -0.8002    Z=             -0.0935  Tot=              0.8451
 Quadrupole moment (field-independent basis, Debye-Ang):
   XX=            -21.6675   YY=            -16.1006   ZZ=            -16.9256
   XY=             -1.3243   XZ=              0.0652   YZ=              0.1531
 Traceless Quadrupole moment (field-independent basis, Debye-Ang):
   XX=             -3.4362   YY=              2.1306   ZZ=              1.3056
   XY=             -1.3243   XZ=              0.0652   YZ=              0.1531
 Octapole moment (field-independent basis, Debye-Ang**2):
  XXX=              4.6768  YYY=             -2.7102  ZZZ=             -0.0630  XYY=              0.9112
  XXY=              1.5926  XXZ=             -0.4842  XZZ=             -0.8454  YZZ=             -0.0225
  YYZ=             -0.2427  XYZ=             -0.2084
 Hexadecapole moment (field-independent basis, Debye-Ang**3):
 XXXX=           -130.8083 YYYY=            -42.9392 ZZZZ=            -13.3638 XXXY=             -1.5042
 XXXZ=              0.9602 YYYX=             -3.7158 YYYZ=              0.0958 ZZZX=              0.0840
 ZZZY=              0.0901 XXYY=            -27.8897 XXZZ=            -21.3202 YYZZ=             -9.8794
 XXYZ=              0.2876 YYXZ=             -0.0095 ZZXY=              0.2467
 N-N= 7.446692266999D+01 E-N=-6.848999231097D+02  KE= 2.264082331245D+02
  Exact polarizability:   0.000   0.000   0.000   0.000   0.000   0.000
 Approx polarizability:  80.334  14.476  34.250   0.158  -0.040  15.042
 Calling FoFJK, ICntrl=    100147 FMM=F ISym2X=0 I1Cent= 0 IOpClX= 0 NMat=1 NMatS=1 NMatT=0.
 ***** Axes restored to original set *****
 -------------------------------------------------------------------
 Center     Atomic                   Forces (Hartrees/Bohr)
 Number     Number              X              Y              Z
 -------------------------------------------------------------------
      1        8           0.230911342    0.024874738    0.005367460
      2        8          -0.048433782    0.070802139   -0.001892318
      3        1          -0.024532476    0.030243335   -0.007598016
      4        1           0.012672390   -0.005010698   -0.001378893
      5        8          -0.170617473   -0.120909515    0.005501768
 -------------------------------------------------------------------
 Cartesian Forces:  Max     0.230911342 RMS     0.084400433
 FormGI is forming the generalized inverse of G from B-inverse, IUseBI=4.

 GradGradGradGradGradGradGradGradGradGradGradGradGradGradGradGradGradGrad
 Berny optimization.
 Internal  Forces:  Max     0.214639949 RMS     0.105471647
 Search for a saddle point.
 Step number   1 out of a maximum of  100
 All quantities printed in internal units (Hartrees-Bohrs-Radians)
 Swapping is turned off.
 Second derivative matrix not updated -- analytic derivatives used.
 The second derivative matrix:
                          R1        R2        R3        R4        A1
           R1           0.14633
           R2           0.03508   0.63361
           R3           0.03635  -0.00158   0.41878
           R4          -0.02631   0.37989   0.00702   0.66383
           A1           0.04909   0.08462   0.03073   0.04981   0.40124
           A2           0.05777  -0.00856   0.04874  -0.01888  -0.01689
           A3          -0.00219   0.11696   0.01707   0.07547   0.12499
           D1           0.00915  -0.01551   0.00109  -0.00416   0.00251
           D2           0.00488  -0.01677  -0.00149  -0.00043  -0.00866
                          A2        A3        D1        D2
           A2           0.24875
           A3          -0.02826   0.22111
           D1           0.00229   0.02075   0.07590
           D2           0.00258   0.01926   0.03292   0.02078
 ITU=  0
     Eigenvalues ---    0.00380   0.07057   0.11013   0.15832   0.24012
     Eigenvalues ---    0.28661   0.41241   0.47621   1.07217
 Eigenvectors required to have negative eigenvalues:
                          D2        D1        A3        A1        R2
   1                   -0.91655   0.38270   0.08823  -0.04805  -0.03861
                          R1        R4        R3        A2
   1                    0.03762   0.01933  -0.00883   0.00596
 RFO step:  Lambda0=8.708895045D-03 Lambda=-1.11182096D-01.
 Linear search not attempted -- option 19 set.
 Maximum step size (   0.300) exceeded in Quadratic search.
    -- Step size scaled by   0.665
 Iteration  1 RMS(Cart)=  0.11223108 RMS(Int)=  0.02553438
 Iteration  2 RMS(Cart)=  0.01512906 RMS(Int)=  0.00044682
 Iteration  3 RMS(Cart)=  0.00042910 RMS(Int)=  0.00000049
 Iteration  4 RMS(Cart)=  0.00000023 RMS(Int)=  0.00000000
 Variable       Old X    -DE/DX   Delta X   Delta X   Delta X     New X
                                 (Linear)    (Quad)   (Total)
    R1        2.80964  -0.07453   0.00000  -0.21877  -0.21877   2.59087
    R2        1.87215   0.21464   0.00000   0.13433   0.13433   2.00648
    R3        1.87074  -0.00700   0.00000  -0.00838  -0.00838   1.86235
    R4        1.80145   0.20655   0.00000   0.10046   0.10046   1.90191
    A1        1.75481   0.04329   0.00000   0.02458   0.02458   1.77939
    A2        1.62006   0.02175   0.00000   0.09252   0.09252   1.71257
    A3        2.78389   0.05836   0.00000   0.06116   0.06116   2.84505
    D1        0.11009   0.00346   0.00000   0.15903   0.15903   0.26911
    D2       -0.33922   0.00439   0.00000  -0.27895  -0.27895  -0.61817
         Item               Value     Threshold  Converged?
 Maximum Force            0.214640     0.000450     NO 
 RMS     Force            0.105472     0.000300     NO 
 Maximum Displacement     0.236267     0.001800     NO 
 RMS     Displacement     0.121077     0.001200     NO 
 Predicted change in Energy=-5.248393D-02
 GradGradGradGradGradGradGradGradGradGradGradGradGradGradGradGradGradGrad

                          Input orientation:                          
 ---------------------------------------------------------------------
 Center     Atomic      Atomic             Coordinates (Angstroms)
 Number     Number       Type             X           Y           Z
 ---------------------------------------------------------------------
      1          8           0        0.337981    0.745519   -0.040425
      2          8           0        1.100792   -0.389978    0.051724
      3          1           0       -0.645215    0.359203    0.066650
      4          1           0        0.383179   -1.051349   -0.085604
      5          8           0       -1.457457   -0.232974    0.016415
 ---------------------------------------------------------------------
                    Distance matrix (angstroms):
                    1          2          3          4          5
     1  O    0.000000
     2  O    1.371031   0.000000
     3  H    1.061782   1.900010   0.000000
     4  H    1.798004   0.985515   1.752265   0.000000
     5  O    2.045551   2.563306   1.006446   2.016949   0.000000
 Stoichiometry    H2O3
 Framework group  C1[X(H2O3)]
 Deg. of freedom     9
 Full point group                 C1      NOp   1
 Largest Abelian subgroup         C1      NOp   1
 Largest concise Abelian subgroup C1      NOp   1
                         Standard orientation:                         
 ---------------------------------------------------------------------
 Center     Atomic      Atomic             Coordinates (Angstroms)
 Number     Number       Type             X           Y           Z
 ---------------------------------------------------------------------
      1          8           0        0.376985    0.724212   -0.016997
      2          8           0        1.103334   -0.437963    0.021651
      3          1           0       -0.617784    0.365005    0.076738
      4          1           0        0.364592   -1.069396   -0.142033
      5          8           0       -1.448670   -0.198200    0.003508
 ---------------------------------------------------------------------
 Rotational constants (GHZ):          37.7369714           9.0449473           7.3037394
 Standard basis: 6-311+G(2df,2p) (5D, 7F)
 There are   135 symmetry adapted cartesian basis functions of A   symmetry.
 There are   120 symmetry adapted basis functions of A   symmetry.
   120 basis functions,   178 primitive gaussians,   135 cartesian basis functions
    13 alpha electrons       13 beta electrons
       nuclear repulsion energy        73.9436088735 Hartrees.
 NAtoms=    5 NActive=    5 NUniq=    5 SFac= 1.00D+00 NAtFMM=   60 NAOKFM=F Big=F
 Integral buffers will be    131072 words long.
 Raffenetti 2 integral format.
 Two-electron integral symmetry is turned on.
 One-electron integrals computed using PRISM.
 NBasis=   120 RedAO= T EigKep=  5.89D-04  NBF=   120
 NBsUse=   120 1.00D-06 EigRej= -1.00D+00 NBFU=   120
 Initial guess from the checkpoint file:  "/scratch/dinius.ab/QMscratch/Gau-44744.chk"
 B after Tr=    -0.000000    0.000000   -0.000000
         Rot=    0.999697    0.001100    0.000563    0.024570 Ang=   2.82 deg.
 ExpMin= 8.45D-02 ExpMax= 8.59D+03 ExpMxC= 1.30D+03 IAcc=2 IRadAn=         4 AccDes= 0.00D+00
 Harris functional with IExCor= 1009 and IRadAn=       4 diagonalized for initial guess.
 HarFok:  IExCor= 1009 AccDes= 0.00D+00 IRadAn=         4 IDoV= 1 UseB2=F ITyADJ=14
 ICtDFT=  3500011 ScaDFX=  1.000000  1.000000  1.000000  1.000000
 FoFCou: FMM=F IPFlag=           0 FMFlag=      100000 FMFlg1=           0
         NFxFlg=           0 DoJE=T BraDBF=F KetDBF=T FulRan=T
         wScrn=  0.000000 ICntrl=       500 IOpCl=  0 I1Cent=   200000004 NGrid=           0
         NMat0=    1 NMatS0=      1 NMatT0=    0 NMatD0=    1 NMtDS0=    0 NMtDT0=    0
 Petite list used in FoFCou.
 Keep R1 ints in memory in canonical form, NReq=28335922.
 Requested convergence on RMS density matrix=1.00D-08 within 128 cycles.
 Requested convergence on MAX density matrix=1.00D-06.
 Requested convergence on             energy=1.00D-06.
 No special actions if energy rises.
 Integral accuracy reduced to 1.0D-05 until final iterations.
 Rare condition: small coef for last iteration:  0.000D+00
 Rare condition: small coef for last iteration:  0.000D+00
 Rare condition: small coef for last iteration:  0.000D+00
 Rare condition: small coef for last iteration:  0.000D+00
 Problem detected with inexpensive integrals.
 Switching to full accuracy and repeating last cycle.
 Rare condition: small coef for last iteration:  0.000D+00
 EnCoef did   100 forward-backward iterations
 Rare condition: small coef for last iteration:  0.000D+00
 Rare condition: small coef for last iteration:  0.000D+00
 Rare condition: small coef for last iteration:  0.000D+00
 SCF Done:  E(RM062X) =  -226.488345886     A.U. after   39 cycles
            NFock= 39  Conv=0.35D-08     -V/T= 2.0011
 Calling FoFJK, ICntrl=      2127 FMM=F ISym2X=0 I1Cent= 0 IOpClX= 0 NMat=1 NMatS=1 NMatT=0.
 ***** Axes restored to original set *****
 -------------------------------------------------------------------
 Center     Atomic                   Forces (Hartrees/Bohr)
 Number     Number              X              Y              Z
 -------------------------------------------------------------------
      1        8           0.122862962    0.011222623    0.011764640
      2        8          -0.023999751    0.032846338   -0.004267023
      3        1          -0.021565235    0.012584066   -0.020289729
      4        1           0.008229858   -0.005390807   -0.001894047
      5        8          -0.085527835   -0.051262220    0.014686160
 -------------------------------------------------------------------
 Cartesian Forces:  Max     0.122862962 RMS     0.043456275

 GradGradGradGradGradGradGradGradGradGradGradGradGradGradGradGradGradGrad
 Berny optimization.
 FormGI is forming the generalized inverse of G from B-inverse, IUseBI=4.
 Internal  Forces:  Max     0.112674882 RMS     0.053223813
 Search for a saddle point.
 Step number   2 out of a maximum of  100
 All quantities printed in internal units (Hartrees-Bohrs-Radians)
 Swapping is turned off.
 Update second derivatives using D2CorX and points    1    2
 The second derivative matrix:
                          R1        R2        R3        R4        A1
           R1           0.18853
           R2           0.04395   0.59659
           R3           0.03806  -0.00132   0.41885
           R4          -0.01899   0.35159   0.00724   0.64220
           A1           0.05097   0.07761   0.03079   0.04446   0.39992
           A2           0.04766  -0.01934   0.04831  -0.02727  -0.01899
           A3           0.00164   0.10029   0.01718   0.06272   0.12183
           D1          -0.00623  -0.03584   0.00042  -0.01995  -0.00144
           D2           0.03514   0.01592  -0.00020   0.02502  -0.00230
                          A2        A3        D1        D2
           A2           0.24925
           A3          -0.03307   0.21360
           D1           0.00217   0.01167   0.07398
           D2           0.00118   0.03384   0.03347   0.02464
 ITU=  0  0
     Eigenvalues ---   -0.00486   0.07563   0.14801   0.15798   0.24011
     Eigenvalues ---    0.28821   0.41242   0.47807   1.01200
 Eigenvectors required to have negative eigenvalues:
                          D2        D1        R1        A3        A1
   1                   -0.88550   0.37551   0.20792   0.14967  -0.07704
                          R4        R3        A2        R2
   1                    0.04989  -0.01896  -0.01648  -0.01412
 RFO step:  Lambda0=2.529066050D-03 Lambda=-3.49752207D-02.
 Linear search not attempted -- option 19 set.
 Iteration  1 RMS(Cart)=  0.13472054 RMS(Int)=  0.10747063
 Iteration  2 RMS(Cart)=  0.06260938 RMS(Int)=  0.02596776
 Iteration  3 RMS(Cart)=  0.00995774 RMS(Int)=  0.00021684
 Iteration  4 RMS(Cart)=  0.00026525 RMS(Int)=  0.00000010
 Iteration  5 RMS(Cart)=  0.00000006 RMS(Int)=  0.00000000
 Variable       Old X    -DE/DX   Delta X   Delta X   Delta X     New X
                                 (Linear)    (Quad)   (Total)
    R1        2.59087  -0.03193   0.00000  -0.07266  -0.07266   2.51821
    R2        2.00648   0.11267   0.00000   0.14665   0.14665   2.15313
    R3        1.86235  -0.00211   0.00000  -0.01725  -0.01725   1.84511
    R4        1.90191   0.09845   0.00000   0.08947   0.08947   1.99138
    A1        1.77939   0.02387   0.00000  -0.01158  -0.01158   1.76782
    A2        1.71257   0.01734   0.00000   0.10892   0.10892   1.82150
    A3        2.84505   0.03367   0.00000   0.14318   0.14318   2.98823
    D1        0.26911   0.00561   0.00000   0.32737   0.32737   0.59648
    D2       -0.61817   0.00685   0.00000  -0.51255  -0.51255  -1.13072
         Item               Value     Threshold  Converged?
 Maximum Force            0.112675     0.000450     NO 
 RMS     Force            0.053224     0.000300     NO 
 Maximum Displacement     0.324548     0.001800     NO 
 RMS     Displacement     0.200126     0.001200     NO 
 Predicted change in Energy=-1.745736D-02
 GradGradGradGradGradGradGradGradGradGradGradGradGradGradGradGradGradGrad

                          Input orientation:                          
 ---------------------------------------------------------------------
 Center     Atomic      Atomic             Coordinates (Angstroms)
 Number     Number       Type             X           Y           Z
 ---------------------------------------------------------------------
      1          8           0        0.375193    0.720378   -0.093781
      2          8           0        1.101385   -0.369533    0.152197
      3          1           0       -0.681779    0.323311    0.059025
      4          1           0        0.553681   -1.105864   -0.181225
      5          8           0       -1.629200   -0.137872    0.072545
 ---------------------------------------------------------------------
                    Distance matrix (angstroms):
                    1          2          3          4          5
     1  O    0.000000
     2  O    1.332579   0.000000
     3  H    1.139387   1.915304   0.000000
     4  H    1.837027   0.976388   1.904370   0.000000
     5  O    2.186744   2.741552   1.053793   2.401329   0.000000
 Stoichiometry    H2O3
 Framework group  C1[X(H2O3)]
 Deg. of freedom     9
 Full point group                 C1      NOp   1
 Largest Abelian subgroup         C1      NOp   1
 Largest concise Abelian subgroup C1      NOp   1
                         Standard orientation:                         
 ---------------------------------------------------------------------
 Center     Atomic      Atomic             Coordinates (Angstroms)
 Number     Number       Type             X           Y           Z
 ---------------------------------------------------------------------
      1          8           0        0.424819    0.697500   -0.036200
      2          8           0        1.154633   -0.413242    0.060704
      3          1           0       -0.630780    0.280075    0.062139
      4          1           0        0.609008   -1.099797   -0.368563
      5          8           0       -1.576730   -0.181793    0.013798
 ---------------------------------------------------------------------
 Rotational constants (GHZ):          40.3206191           7.7786301           6.5554715
 Standard basis: 6-311+G(2df,2p) (5D, 7F)
 There are   135 symmetry adapted cartesian basis functions of A   symmetry.
 There are   120 symmetry adapted basis functions of A   symmetry.
   120 basis functions,   178 primitive gaussians,   135 cartesian basis functions
    13 alpha electrons       13 beta electrons
       nuclear repulsion energy        71.8800483109 Hartrees.
 NAtoms=    5 NActive=    5 NUniq=    5 SFac= 1.00D+00 NAtFMM=   60 NAOKFM=F Big=F
 Integral buffers will be    131072 words long.
 Raffenetti 2 integral format.
 Two-electron integral symmetry is turned on.
 One-electron integrals computed using PRISM.
 NBasis=   120 RedAO= T EigKep=  6.68D-04  NBF=   120
 NBsUse=   120 1.00D-06 EigRej= -1.00D+00 NBFU=   120
 Initial guess from the checkpoint file:  "/scratch/dinius.ab/QMscratch/Gau-44744.chk"
 B after Tr=     0.000000   -0.000000    0.000000
         Rot=    0.999995    0.002366    0.002151    0.000608 Ang=   0.37 deg.
 ExpMin= 8.45D-02 ExpMax= 8.59D+03 ExpMxC= 1.30D+03 IAcc=2 IRadAn=         4 AccDes= 0.00D+00
 Harris functional with IExCor= 1009 and IRadAn=       4 diagonalized for initial guess.
 HarFok:  IExCor= 1009 AccDes= 0.00D+00 IRadAn=         4 IDoV= 1 UseB2=F ITyADJ=14
 ICtDFT=  3500011 ScaDFX=  1.000000  1.000000  1.000000  1.000000
 FoFCou: FMM=F IPFlag=           0 FMFlag=      100000 FMFlg1=           0
         NFxFlg=           0 DoJE=T BraDBF=F KetDBF=T FulRan=T
         wScrn=  0.000000 ICntrl=       500 IOpCl=  0 I1Cent=   200000004 NGrid=           0
         NMat0=    1 NMatS0=      1 NMatT0=    0 NMatD0=    1 NMtDS0=    0 NMtDT0=    0
 Petite list used in FoFCou.
 Keep R1 ints in memory in canonical form, NReq=28335617.
 Requested convergence on RMS density matrix=1.00D-08 within 128 cycles.
 Requested convergence on MAX density matrix=1.00D-06.
 Requested convergence on             energy=1.00D-06.
 No special actions if energy rises.
 Integral accuracy reduced to 1.0D-05 until final iterations.
 Initial convergence to 1.0D-05 achieved.  Increase integral accuracy.
 SCF Done:  E(RM062X) =  -226.511948687     A.U. after   33 cycles
            NFock= 33  Conv=0.16D-08     -V/T= 2.0021
 Calling FoFJK, ICntrl=      2127 FMM=F ISym2X=0 I1Cent= 0 IOpClX= 0 NMat=1 NMatS=1 NMatT=0.
 ***** Axes restored to original set *****
 -------------------------------------------------------------------
 Center     Atomic                   Forces (Hartrees/Bohr)
 Number     Number              X              Y              Z
 -------------------------------------------------------------------
      1        8           0.036493574    0.003542871    0.009258560
      2        8          -0.008792008    0.011314016    0.006393015
      3        1          -0.003061114   -0.003934506   -0.028103703
      4        1           0.001701204   -0.001827469   -0.007581764
      5        8          -0.026341655   -0.009094911    0.020033891
 -------------------------------------------------------------------
 Cartesian Forces:  Max     0.036493574 RMS     0.015774607

 GradGradGradGradGradGradGradGradGradGradGradGradGradGradGradGradGradGrad
 Berny optimization.
 FormGI is forming the generalized inverse of G from B-inverse, IUseBI=4.
 Internal  Forces:  Max     0.035197329 RMS     0.019134058
 Search for a saddle point.
 Step number   3 out of a maximum of  100
 All quantities printed in internal units (Hartrees-Bohrs-Radians)
 Swapping is turned off.
 Update second derivatives using D2CorX and points    2    3
 The second derivative matrix:
                          R1        R2        R3        R4        A1
           R1           0.18725
           R2           0.04962   0.57600
           R3           0.03860  -0.00248   0.41896
           R4          -0.01349   0.33295   0.00649   0.62584
           A1           0.05073   0.07864   0.03088   0.04544   0.39987
           A2           0.04748  -0.02159   0.04755  -0.03039  -0.01898
           A3           0.00890   0.07509   0.01600   0.04033   0.12314
           D1          -0.00268  -0.05479  -0.00197  -0.03933  -0.00070
           D2           0.03290   0.03573   0.00346   0.04726  -0.00287
                          A2        A3        D1        D2
           A2           0.25131
           A3          -0.03674   0.18311
           D1           0.00489  -0.01339   0.06650
           D2          -0.00591   0.06171   0.03250   0.04264
 ITU=  0  0  0
     Eigenvalues ---   -0.01296   0.07529   0.13890   0.15609   0.24007
     Eigenvalues ---    0.28848   0.41239   0.47815   0.97507
 Eigenvectors required to have negative eigenvalues:
                          D2        D1        A3        R1        A1
   1                   -0.80338   0.43247   0.34174   0.16342  -0.13608
                          R4        R3        R2        A2
   1                    0.07312  -0.00942   0.00817  -0.00682
 RFO step:  Lambda0=1.055074358D-02 Lambda=-9.65641582D-03.
 Linear search not attempted -- option 19 set.
 Iteration  1 RMS(Cart)=  0.09391321 RMS(Int)=  0.16079123
 Iteration  2 RMS(Cart)=  0.02057634 RMS(Int)=  0.09393791
 Iteration  3 RMS(Cart)=  0.01737290 RMS(Int)=  0.02730286
 Iteration  4 RMS(Cart)=  0.00664355 RMS(Int)=  0.00029576
 Iteration  5 RMS(Cart)=  0.00038254 RMS(Int)=  0.00000015
 Iteration  6 RMS(Cart)=  0.00000014 RMS(Int)=  0.00000000
 Variable       Old X    -DE/DX   Delta X   Delta X   Delta X     New X
                                 (Linear)    (Quad)   (Total)
    R1        2.51821  -0.01184   0.00000  -0.21980  -0.21980   2.29841
    R2        2.15313   0.03074   0.00000   0.04188   0.04188   2.19501
    R3        1.84511   0.00301   0.00000   0.01546   0.01546   1.86056
    R4        1.99138   0.02792   0.00000  -0.03995  -0.03995   1.95143
    A1        1.76782   0.00031   0.00000   0.06006   0.06006   1.82788
    A2        1.82150   0.00053   0.00000   0.04854   0.04854   1.87004
    A3        2.98823   0.03520   0.00000  -0.08639  -0.08639   2.90184
    D1        0.59648   0.01319   0.00000  -0.19054  -0.19054   0.40595
    D2       -1.13072   0.00282   0.00000   0.63582   0.63582  -0.49490
         Item               Value     Threshold  Converged?
 Maximum Force            0.035197     0.000450     NO 
 RMS     Force            0.019134     0.000300     NO 
 Maximum Displacement     0.121087     0.001800     NO 
 RMS     Displacement     0.094980     0.001200     NO 
 Predicted change in Energy= 2.538389D-03
 GradGradGradGradGradGradGradGradGradGradGradGradGradGradGradGradGradGrad

                          Input orientation:                          
 ---------------------------------------------------------------------
 Center     Atomic      Atomic             Coordinates (Angstroms)
 Number     Number       Type             X           Y           Z
 ---------------------------------------------------------------------
      1          8           0        0.418272    0.686132   -0.050135
      2          8           0        1.074637   -0.328143    0.090354
      3          1           0       -0.685803    0.339878    0.051451
      4          1           0        0.489605   -1.086408   -0.137999
      5          8           0       -1.577432   -0.181039    0.055089
 ---------------------------------------------------------------------
                    Distance matrix (angstroms):
                    1          2          3          4          5
     1  O    0.000000
     2  O    1.216268   0.000000
     3  H    1.161548   1.883325   0.000000
     4  H    1.776149   0.984567   1.857893   0.000000
     5  O    2.178507   2.656380   1.032652   2.264866   0.000000
 Stoichiometry    H2O3
 Framework group  C1[X(H2O3)]
 Deg. of freedom     9
 Full point group                 C1      NOp   1
 Largest Abelian subgroup         C1      NOp   1
 Largest concise Abelian subgroup C1      NOp   1
                         Standard orientation:                         
 ---------------------------------------------------------------------
 Center     Atomic      Atomic             Coordinates (Angstroms)
 Number     Number       Type             X           Y           Z
 ---------------------------------------------------------------------
      1          8           0        0.478698    0.645124   -0.027071
      2          8           0        1.092515   -0.402617    0.042028
      3          1           0       -0.639102    0.337924    0.046050
      4          1           0        0.478551   -1.117969   -0.242034
      5          8           0       -1.551144   -0.145001    0.009541
 ---------------------------------------------------------------------
 Rotational constants (GHZ):          45.7795511           8.1528464           6.9382302
 Standard basis: 6-311+G(2df,2p) (5D, 7F)
 There are   135 symmetry adapted cartesian basis functions of A   symmetry.
 There are   120 symmetry adapted basis functions of A   symmetry.
   120 basis functions,   178 primitive gaussians,   135 cartesian basis functions
    13 alpha electrons       13 beta electrons
       nuclear repulsion energy        74.9701456996 Hartrees.
 NAtoms=    5 NActive=    5 NUniq=    5 SFac= 1.00D+00 NAtFMM=   60 NAOKFM=F Big=F
 Integral buffers will be    131072 words long.
 Raffenetti 2 integral format.
 Two-electron integral symmetry is turned on.
 One-electron integrals computed using PRISM.
 NBasis=   120 RedAO= T EigKep=  4.40D-04  NBF=   120
 NBsUse=   120 1.00D-06 EigRej= -1.00D+00 NBFU=   120
 Initial guess from the checkpoint file:  "/scratch/dinius.ab/QMscratch/Gau-44744.chk"
 B after Tr=    -0.000000    0.000000   -0.000000
         Rot=    0.999868    0.004511   -0.000077    0.015620 Ang=   1.86 deg.
 ExpMin= 8.45D-02 ExpMax= 8.59D+03 ExpMxC= 1.30D+03 IAcc=2 IRadAn=         4 AccDes= 0.00D+00
 Harris functional with IExCor= 1009 and IRadAn=       4 diagonalized for initial guess.
 HarFok:  IExCor= 1009 AccDes= 0.00D+00 IRadAn=         4 IDoV= 1 UseB2=F ITyADJ=14
 ICtDFT=  3500011 ScaDFX=  1.000000  1.000000  1.000000  1.000000
 FoFCou: FMM=F IPFlag=           0 FMFlag=      100000 FMFlg1=           0
         NFxFlg=           0 DoJE=T BraDBF=F KetDBF=T FulRan=T
         wScrn=  0.000000 ICntrl=       500 IOpCl=  0 I1Cent=   200000004 NGrid=           0
         NMat0=    1 NMatS0=      1 NMatT0=    0 NMatD0=    1 NMtDS0=    0 NMtDT0=    0
 Petite list used in FoFCou.
 Keep R1 ints in memory in canonical form, NReq=28335765.
 Requested convergence on RMS density matrix=1.00D-08 within 128 cycles.
 Requested convergence on MAX density matrix=1.00D-06.
 Requested convergence on             energy=1.00D-06.
 No special actions if energy rises.
 Integral accuracy reduced to 1.0D-05 until final iterations.
 Initial convergence to 1.0D-05 achieved.  Increase integral accuracy.
 SCF Done:  E(RM062X) =  -226.503862512     A.U. after   33 cycles
            NFock= 33  Conv=0.20D-08     -V/T= 2.0007
 Calling FoFJK, ICntrl=      2127 FMM=F ISym2X=0 I1Cent= 0 IOpClX= 0 NMat=1 NMatS=1 NMatT=0.
 ***** Axes restored to original set *****
 -------------------------------------------------------------------
 Center     Atomic                   Forces (Hartrees/Bohr)
 Number     Number              X              Y              Z
 -------------------------------------------------------------------
      1        8          -0.007784362    0.098725699   -0.003774548
      2        8           0.061201297   -0.083196086    0.016168968
      3        1          -0.033884182   -0.001532416   -0.023028566
      4        1          -0.001893112   -0.003255624   -0.005494121
      5        8          -0.017639640   -0.010741573    0.016128267
 -------------------------------------------------------------------
 Cartesian Forces:  Max     0.098725699 RMS     0.039295512

 GradGradGradGradGradGradGradGradGradGradGradGradGradGradGradGradGradGrad
 Berny optimization.
 FormGI is forming the generalized inverse of G from B-inverse, IUseBI=4.
 Internal  Forces:  Max     0.105332232 RMS     0.040176875
 Search for a saddle point.
 Step number   4 out of a maximum of  100
 All quantities printed in internal units (Hartrees-Bohrs-Radians)
 Swapping is turned off.
 Update second derivatives using D2CorX and points    2    3    4
 The second derivative matrix:
                          R1        R2        R3        R4        A1
           R1           0.53769
           R2           0.09411   0.48419
           R3           0.04931  -0.00518   0.41912
           R4           0.01538   0.30699   0.00614   0.61919
           A1           0.04894   0.05596   0.02988   0.03849   0.39469
           A2          -0.01421  -0.07408   0.04381  -0.04906  -0.02895
           A3           0.00747   0.05597   0.01519   0.03442   0.11882
           D1          -0.03359  -0.09480  -0.00437  -0.05294  -0.00877
           D2          -0.01744  -0.03387  -0.00081   0.02412  -0.01740
                          A2        A3        D1        D2
           A2           0.24170
           A3          -0.04518   0.17934
           D1          -0.00625  -0.02050   0.05535
           D2          -0.02590   0.05015   0.01474   0.00599
 ITU=  0  0  0  0
     Eigenvalues ---   -0.02434   0.03203   0.13298   0.22106   0.24097
     Eigenvalues ---    0.41158   0.42898   0.56602   0.92799
 Eigenvectors required to have negative eigenvalues:
                          D2        A3        D1        A1        R2
   1                   -0.91522   0.31482   0.15350  -0.12120  -0.11620
                          R4        A2        R1        R3
   1                    0.08804  -0.06126   0.00261   0.00042
 RFO step:  Lambda0=1.721307847D-03 Lambda=-3.04817220D-02.
 Linear search not attempted -- option 19 set.
 Iteration  1 RMS(Cart)=  0.11758252 RMS(Int)=  0.07480569
 Iteration  2 RMS(Cart)=  0.07608305 RMS(Int)=  0.01512542
 Iteration  3 RMS(Cart)=  0.01425701 RMS(Int)=  0.00026261
 Iteration  4 RMS(Cart)=  0.00017462 RMS(Int)=  0.00000004
 Iteration  5 RMS(Cart)=  0.00000002 RMS(Int)=  0.00000000
 Variable       Old X    -DE/DX   Delta X   Delta X   Delta X     New X
                                 (Linear)    (Quad)   (Total)
    R1        2.29841   0.10533   0.00000   0.18866   0.18866   2.48707
    R2        2.19501   0.05203   0.00000   0.11281   0.11281   2.30782
    R3        1.86056   0.00490   0.00000  -0.01118  -0.01118   1.84938
    R4        1.95143   0.02071   0.00000   0.01195   0.01195   1.96338
    A1        1.82788   0.00715   0.00000  -0.05951  -0.05951   1.76837
    A2        1.87004  -0.00075   0.00000   0.04992   0.04992   1.91996
    A3        2.90184   0.01039   0.00000   0.14703   0.14703   3.04887
    D1        0.40595   0.00797   0.00000   0.37563   0.37563   0.78158
    D2       -0.49490   0.00702   0.00000  -0.17531  -0.17531  -0.67021
         Item               Value     Threshold  Converged?
 Maximum Force            0.105332     0.000450     NO 
 RMS     Force            0.040177     0.000300     NO 
 Maximum Displacement     0.355701     0.001800     NO 
 RMS     Displacement     0.198120     0.001200     NO 
 Predicted change in Energy=-1.709771D-02
 GradGradGradGradGradGradGradGradGradGradGradGradGradGradGradGradGradGrad

                          Input orientation:                          
 ---------------------------------------------------------------------
 Center     Atomic      Atomic             Coordinates (Angstroms)
 Number     Number       Type             X           Y           Z
 ---------------------------------------------------------------------
      1          8           0        0.404083    0.712681   -0.109086
      2          8           0        1.080083   -0.373136    0.200987
      3          1           0       -0.746156    0.327709    0.033013
      4          1           0        0.677834   -1.153078   -0.232188
      5          8           0       -1.696564   -0.083754    0.116034
 ---------------------------------------------------------------------
                    Distance matrix (angstroms):
                    1          2          3          4          5
     1  O    0.000000
     2  O    1.316100   0.000000
     3  H    1.221247   1.963300   0.000000
     4  H    1.889749   0.978649   2.071427   0.000000
     5  O    2.257810   2.792978   1.038976   2.627257   0.000000
 Stoichiometry    H2O3
 Framework group  C1[X(H2O3)]
 Deg. of freedom     9
 Full point group                 C1      NOp   1
 Largest Abelian subgroup         C1      NOp   1
 Largest concise Abelian subgroup C1      NOp   1
                         Standard orientation:                         
 ---------------------------------------------------------------------
 Center     Atomic      Atomic             Coordinates (Angstroms)
 Number     Number       Type             X           Y           Z
 ---------------------------------------------------------------------
      1          8           0        0.455983    0.695407   -0.043312
      2          8           0        1.157407   -0.410941    0.083649
      3          1           0       -0.684978    0.264171    0.017404
      4          1           0        0.778455   -1.114331   -0.481499
      5          8           0       -1.625075   -0.178196    0.017675
 ---------------------------------------------------------------------
 Rotational constants (GHZ):          40.0879878           7.3835440           6.2892952
 Standard basis: 6-311+G(2df,2p) (5D, 7F)
 There are   135 symmetry adapted cartesian basis functions of A   symmetry.
 There are   120 symmetry adapted basis functions of A   symmetry.
   120 basis functions,   178 primitive gaussians,   135 cartesian basis functions
    13 alpha electrons       13 beta electrons
       nuclear repulsion energy        70.9892160989 Hartrees.
 NAtoms=    5 NActive=    5 NUniq=    5 SFac= 1.00D+00 NAtFMM=   60 NAOKFM=F Big=F
 Integral buffers will be    131072 words long.
 Raffenetti 2 integral format.
 Two-electron integral symmetry is turned on.
 One-electron integrals computed using PRISM.
 NBasis=   120 RedAO= T EigKep=  7.00D-04  NBF=   120
 NBsUse=   120 1.00D-06 EigRej= -1.00D+00 NBFU=   120
 Initial guess from the checkpoint file:  "/scratch/dinius.ab/QMscratch/Gau-44744.chk"
 B after Tr=     0.000000    0.000000    0.000000
         Rot=    0.999878   -0.003927    0.002391   -0.014909 Ang=  -1.79 deg.
 ExpMin= 8.45D-02 ExpMax= 8.59D+03 ExpMxC= 1.30D+03 IAcc=2 IRadAn=         4 AccDes= 0.00D+00
 Harris functional with IExCor= 1009 and IRadAn=       4 diagonalized for initial guess.
 HarFok:  IExCor= 1009 AccDes= 0.00D+00 IRadAn=         4 IDoV= 1 UseB2=F ITyADJ=14
 ICtDFT=  3500011 ScaDFX=  1.000000  1.000000  1.000000  1.000000
 FoFCou: FMM=F IPFlag=           0 FMFlag=      100000 FMFlg1=           0
         NFxFlg=           0 DoJE=T BraDBF=F KetDBF=T FulRan=T
         wScrn=  0.000000 ICntrl=       500 IOpCl=  0 I1Cent=   200000004 NGrid=           0
         NMat0=    1 NMatS0=      1 NMatT0=    0 NMatD0=    1 NMtDS0=    0 NMtDT0=    0
 Petite list used in FoFCou.
 Keep R1 ints in memory in canonical form, NReq=28335446.
 Requested convergence on RMS density matrix=1.00D-08 within 128 cycles.
 Requested convergence on MAX density matrix=1.00D-06.
 Requested convergence on             energy=1.00D-06.
 No special actions if energy rises.
 Integral accuracy reduced to 1.0D-05 until final iterations.
 Initial convergence to 1.0D-05 achieved.  Increase integral accuracy.
 SCF Done:  E(RM062X) =  -226.518924992     A.U. after   35 cycles
            NFock= 35  Conv=0.80D-08     -V/T= 2.0024
 Calling FoFJK, ICntrl=      2127 FMM=F ISym2X=0 I1Cent= 0 IOpClX= 0 NMat=1 NMatS=1 NMatT=0.
 ***** Axes restored to original set *****
 -------------------------------------------------------------------
 Center     Atomic                   Forces (Hartrees/Bohr)
 Number     Number              X              Y              Z
 -------------------------------------------------------------------
      1        8           0.015234175   -0.005735290    0.007301172
      2        8           0.002100488    0.006364359    0.009072180
      3        1          -0.001874371   -0.008594937   -0.026485221
      4        1          -0.004828911    0.007774444   -0.007061658
      5        8          -0.010631381    0.000191424    0.017173528
 -------------------------------------------------------------------
 Cartesian Forces:  Max     0.026485221 RMS     0.010850425

 GradGradGradGradGradGradGradGradGradGradGradGradGradGradGradGradGradGrad
 Berny optimization.
 FormGI is forming the generalized inverse of G from B-inverse, IUseBI=4.
 Internal  Forces:  Max     0.020715046 RMS     0.012226070
 Search for a saddle point.
 Step number   5 out of a maximum of  100
 All quantities printed in internal units (Hartrees-Bohrs-Radians)
 Swapping is turned off.
 Update second derivatives using D2CorX and points    3    4    5
 The second derivative matrix:
                          R1        R2        R3        R4        A1
           R1           0.56095
           R2           0.10430   0.46604
           R3           0.04935  -0.00418   0.41908
           R4           0.00659   0.29694   0.00637   0.62100
           A1           0.04595   0.05954   0.02967   0.04089   0.39405
           A2           0.01019  -0.05911   0.04371  -0.05746  -0.03288
           A3           0.00749   0.03046   0.01626   0.02770   0.12422
           D1           0.00418  -0.11336  -0.00279  -0.07679  -0.00607
           D2          -0.00205  -0.04243  -0.00001   0.01331  -0.01577
                          A2        A3        D1        D2
           A2           0.26717
           A3          -0.04086   0.15098
           D1           0.03993  -0.05998   0.06221
           D2          -0.00533   0.03170   0.01575   0.00925
 ITU=  0  0  0  0  0
     Eigenvalues ---   -0.02192   0.01925   0.12287   0.22622   0.24916
     Eigenvalues ---    0.41154   0.43605   0.58936   0.91822
 Eigenvectors required to have negative eigenvalues:
                          D2        D1        A3        A1        R4
   1                   -0.76215   0.48345   0.39766  -0.14887   0.06503
                          A2        R2        R1        R3
   1                   -0.02950  -0.00396   0.00095   0.00024
 RFO step:  Lambda0=4.706939429D-03 Lambda=-1.01861982D-02.
 Linear search not attempted -- option 19 set.
 Iteration  1 RMS(Cart)=  0.06630343 RMS(Int)=  0.14204379
 Iteration  2 RMS(Cart)=  0.00804822 RMS(Int)=  0.07600067
 Iteration  3 RMS(Cart)=  0.00622636 RMS(Int)=  0.00935024
 Iteration  4 RMS(Cart)=  0.00125064 RMS(Int)=  0.00002445
 Iteration  5 RMS(Cart)=  0.00003093 RMS(Int)=  0.00000000
 Iteration  6 RMS(Cart)=  0.00000000 RMS(Int)=  0.00000000
 Variable       Old X    -DE/DX   Delta X   Delta X   Delta X     New X
                                 (Linear)    (Quad)   (Total)
    R1        2.48707  -0.01259   0.00000  -0.04868  -0.04868   2.43839
    R2        2.30782   0.01334   0.00000   0.15358   0.15358   2.46140
    R3        1.84938  -0.00109   0.00000   0.01155   0.01155   1.86093
    R4        1.96338   0.01102   0.00000  -0.05833  -0.05833   1.90505
    A1        1.76837  -0.00204   0.00000   0.00719   0.00719   1.77555
    A2        1.91996  -0.02005   0.00000  -0.05655  -0.05655   1.86341
    A3        3.04887   0.02072   0.00000  -0.00059  -0.00059   3.04828
    D1        0.78158   0.00671   0.00000   0.12758   0.12758   0.90916
    D2       -0.67021   0.00241   0.00000   0.62725   0.62725  -0.04295
         Item               Value     Threshold  Converged?
 Maximum Force            0.020715     0.000450     NO 
 RMS     Force            0.012226     0.000300     NO 
 Maximum Displacement     0.093021     0.001800     NO 
 RMS     Displacement     0.073757     0.001200     NO 
 Predicted change in Energy=-3.676690D-03
 GradGradGradGradGradGradGradGradGradGradGradGradGradGradGradGradGradGrad

                          Input orientation:                          
 ---------------------------------------------------------------------
 Center     Atomic      Atomic             Coordinates (Angstroms)
 Number     Number       Type             X           Y           Z
 ---------------------------------------------------------------------
      1          8           0        0.445000    0.682555   -0.130076
      2          8           0        1.080350   -0.374791    0.248517
      3          1           0       -0.795380    0.311101    0.011469
      4          1           0        0.711913   -1.127830   -0.268142
      5          8           0       -1.722603   -0.060615    0.146992
 ---------------------------------------------------------------------
                    Distance matrix (angstroms):
                    1          2          3          4          5
     1  O    0.000000
     2  O    1.290341   0.000000
     3  H    1.302519   2.011219   0.000000
     4  H    1.835156   0.984759   2.102531   0.000000
     5  O    2.308153   2.822332   1.008108   2.690381   0.000000
 Stoichiometry    H2O3
 Framework group  C1[X(H2O3)]
 Deg. of freedom     9
 Full point group                 C1      NOp   1
 Largest Abelian subgroup         C1      NOp   1
 Largest concise Abelian subgroup C1      NOp   1
                         Standard orientation:                         
 ---------------------------------------------------------------------
 Center     Atomic      Atomic             Coordinates (Angstroms)
 Number     Number       Type             X           Y           Z
 ---------------------------------------------------------------------
      1          8           0        0.490602    0.681135   -0.045226
      2          8           0        1.154979   -0.415614    0.098739
      3          1           0       -0.738853    0.252292   -0.012190
      4          1           0        0.816217   -1.044059   -0.579529
      5          8           0       -1.655252   -0.166550    0.020451
 ---------------------------------------------------------------------
 Rotational constants (GHZ):          41.1421296           7.1437987           6.1597006
 Standard basis: 6-311+G(2df,2p) (5D, 7F)
 There are   135 symmetry adapted cartesian basis functions of A   symmetry.
 There are   120 symmetry adapted basis functions of A   symmetry.
   120 basis functions,   178 primitive gaussians,   135 cartesian basis functions
    13 alpha electrons       13 beta electrons
       nuclear repulsion energy        70.9049552267 Hartrees.
 NAtoms=    5 NActive=    5 NUniq=    5 SFac= 1.00D+00 NAtFMM=   60 NAOKFM=F Big=F
 Integral buffers will be    131072 words long.
 Raffenetti 2 integral format.
 Two-electron integral symmetry is turned on.
 One-electron integrals computed using PRISM.
 NBasis=   120 RedAO= T EigKep=  6.84D-04  NBF=   120
 NBsUse=   120 1.00D-06 EigRej= -1.00D+00 NBFU=   120
 Initial guess from the checkpoint file:  "/scratch/dinius.ab/QMscratch/Gau-44744.chk"
 B after Tr=    -0.000000    0.000000    0.000000
         Rot=    0.999978   -0.004848    0.001093    0.004443 Ang=  -0.76 deg.
 ExpMin= 8.45D-02 ExpMax= 8.59D+03 ExpMxC= 1.30D+03 IAcc=2 IRadAn=         4 AccDes= 0.00D+00
 Harris functional with IExCor= 1009 and IRadAn=       4 diagonalized for initial guess.
 HarFok:  IExCor= 1009 AccDes= 0.00D+00 IRadAn=         4 IDoV= 1 UseB2=F ITyADJ=14
 ICtDFT=  3500011 ScaDFX=  1.000000  1.000000  1.000000  1.000000
 FoFCou: FMM=F IPFlag=           0 FMFlag=      100000 FMFlg1=           0
         NFxFlg=           0 DoJE=T BraDBF=F KetDBF=T FulRan=T
         wScrn=  0.000000 ICntrl=       500 IOpCl=  0 I1Cent=   200000004 NGrid=           0
         NMat0=    1 NMatS0=      1 NMatT0=    0 NMatD0=    1 NMtDS0=    0 NMtDT0=    0
 Petite list used in FoFCou.
 Keep R1 ints in memory in canonical form, NReq=28335421.
 Requested convergence on RMS density matrix=1.00D-08 within 128 cycles.
 Requested convergence on MAX density matrix=1.00D-06.
 Requested convergence on             energy=1.00D-06.
 No special actions if energy rises.
 Integral accuracy reduced to 1.0D-05 until final iterations.
 Initial convergence to 1.0D-05 achieved.  Increase integral accuracy.
 SCF Done:  E(RM062X) =  -226.522735826     A.U. after   22 cycles
            NFock= 22  Conv=0.69D-08     -V/T= 2.0024
 Calling FoFJK, ICntrl=      2127 FMM=F ISym2X=0 I1Cent= 0 IOpClX= 0 NMat=1 NMatS=1 NMatT=0.
 ***** Axes restored to original set *****
 -------------------------------------------------------------------
 Center     Atomic                   Forces (Hartrees/Bohr)
 Number     Number              X              Y              Z
 -------------------------------------------------------------------
      1        8           0.003301589    0.013331805    0.007629814
      2        8          -0.000591982   -0.011233646    0.000134332
      3        1           0.004227377   -0.008688414   -0.025576363
      4        1           0.002041989    0.005207933    0.001814801
      5        8          -0.008978973    0.001382322    0.015997416
 -------------------------------------------------------------------
 Cartesian Forces:  Max     0.025576363 RMS     0.009979847

 GradGradGradGradGradGradGradGradGradGradGradGradGradGradGradGradGradGrad
 Berny optimization.
 FormGI is forming the generalized inverse of G from B-inverse, IUseBI=4.
 Internal  Forces:  Max     0.009899470 RMS     0.005216932
 Search for a saddle point.
 Step number   6 out of a maximum of  100
 All quantities printed in internal units (Hartrees-Bohrs-Radians)
 Swapping is turned off.
 Update second derivatives using D2CorX and points    5    6
 The second derivative matrix:
                          R1        R2        R3        R4        A1
           R1           0.56241
           R2           0.10240   0.46324
           R3           0.04855  -0.00225   0.41937
           R4           0.00855   0.29395   0.00537   0.62362
           A1           0.04535   0.06107   0.02987   0.04014   0.39419
           A2           0.01091  -0.05812   0.04300  -0.05634  -0.03344
           A3           0.00732   0.03106   0.01629   0.02750   0.12424
           D1           0.00195  -0.11358  -0.00105  -0.08004  -0.00471
           D2          -0.01145  -0.04851   0.00822  -0.00086  -0.00930
                          A2        A3        D1        D2
           A2           0.26683
           A3          -0.04108   0.15098
           D1           0.03997  -0.05950   0.06377
           D2          -0.00328   0.03411   0.01928   0.00613
 ITU=  0  0  0  0  0  0
     Eigenvalues ---   -0.02509   0.02179   0.12252   0.22587   0.24970
     Eigenvalues ---    0.41144   0.43737   0.58932   0.91760
 Eigenvectors required to have negative eigenvalues:
                          D2        D1        A3        A1        R4
   1                   -0.77659   0.47238   0.39049  -0.13334   0.04931
                          A2        R3        R1        R2
   1                   -0.02690   0.01336  -0.01158  -0.00583
 RFO step:  Lambda0=1.793920822D-08 Lambda=-1.25456142D-03.
 Linear search not attempted -- option 19 set.
 Iteration  1 RMS(Cart)=  0.03292892 RMS(Int)=  0.02192173
 Iteration  2 RMS(Cart)=  0.02226743 RMS(Int)=  0.00358526
 Iteration  3 RMS(Cart)=  0.00137400 RMS(Int)=  0.00002679
 Iteration  4 RMS(Cart)=  0.00002859 RMS(Int)=  0.00000001
 Iteration  5 RMS(Cart)=  0.00000000 RMS(Int)=  0.00000000
 Variable       Old X    -DE/DX   Delta X   Delta X   Delta X     New X
                                 (Linear)    (Quad)   (Total)
    R1        2.43839   0.00622   0.00000   0.00732   0.00732   2.44571
    R2        2.46140   0.00557   0.00000   0.04888   0.04888   2.51028
    R3        1.86093  -0.00570   0.00000  -0.01465  -0.01465   1.84627
    R4        1.90505   0.00990   0.00000   0.00947   0.00947   1.91451
    A1        1.77555  -0.00543   0.00000  -0.03314  -0.03314   1.74241
    A2        1.86341  -0.00211   0.00000  -0.00882  -0.00882   1.85459
    A3        3.04828   0.00079   0.00000   0.04663   0.04663   3.09491
    D1        0.90916   0.00162   0.00000   0.13392   0.13392   1.04308
    D2       -0.04295   0.00275   0.00000   0.11187   0.11187   0.06891
         Item               Value     Threshold  Converged?
 Maximum Force            0.009899     0.000450     NO 
 RMS     Force            0.005217     0.000300     NO 
 Maximum Displacement     0.100837     0.001800     NO 
 RMS     Displacement     0.056330     0.001200     NO 
 Predicted change in Energy=-6.501980D-04
 GradGradGradGradGradGradGradGradGradGradGradGradGradGradGradGradGradGrad

                          Input orientation:                          
 ---------------------------------------------------------------------
 Center     Atomic      Atomic             Coordinates (Angstroms)
 Number     Number       Type             X           Y           Z
 ---------------------------------------------------------------------
      1          8           0        0.454875    0.673498   -0.153250
      2          8           0        1.061443   -0.385473    0.277620
      3          1           0       -0.807602    0.295890    0.014577
      4          1           0        0.765274   -1.121458   -0.292599
      5          8           0       -1.754710   -0.032037    0.162413
 ---------------------------------------------------------------------
                    Distance matrix (angstroms):
                    1          2          3          4          5
     1  O    0.000000
     2  O    1.294215   0.000000
     3  H    1.328383   2.006683   0.000000
     4  H    1.826918   0.977006   2.139432   0.000000
     5  O    2.340874   2.840583   1.013117   2.782839   0.000000
 Stoichiometry    H2O3
 Framework group  C1[X(H2O3)]
 Deg. of freedom     9
 Full point group                 C1      NOp   1
 Largest Abelian subgroup         C1      NOp   1
 Largest concise Abelian subgroup C1      NOp   1
                         Standard orientation:                         
 ---------------------------------------------------------------------
 Center     Atomic      Atomic             Coordinates (Angstroms)
 Number     Number       Type             X           Y           Z
 ---------------------------------------------------------------------
      1          8           0        0.504518    0.685540   -0.044643
      2          8           0        1.151695   -0.424786    0.108094
      3          1           0       -0.742056    0.227599   -0.013879
      4          1           0        0.896722   -0.995558   -0.642738
      5          8           0       -1.675546   -0.164759    0.018627
 ---------------------------------------------------------------------
 Rotational constants (GHZ):          40.4744768           7.0025924           6.0542046
 Standard basis: 6-311+G(2df,2p) (5D, 7F)
 There are   135 symmetry adapted cartesian basis functions of A   symmetry.
 There are   120 symmetry adapted basis functions of A   symmetry.
   120 basis functions,   178 primitive gaussians,   135 cartesian basis functions
    13 alpha electrons       13 beta electrons
       nuclear repulsion energy        70.4528156530 Hartrees.
 NAtoms=    5 NActive=    5 NUniq=    5 SFac= 1.00D+00 NAtFMM=   60 NAOKFM=F Big=F
 Integral buffers will be    131072 words long.
 Raffenetti 2 integral format.
 Two-electron integral symmetry is turned on.
 One-electron integrals computed using PRISM.
 NBasis=   120 RedAO= T EigKep=  7.10D-04  NBF=   120
 NBsUse=   120 1.00D-06 EigRej= -1.00D+00 NBFU=   120
 Initial guess from the checkpoint file:  "/scratch/dinius.ab/QMscratch/Gau-44744.chk"
 B after Tr=     0.000000   -0.000000   -0.000000
         Rot=    0.999983   -0.005505    0.001643    0.000732 Ang=  -0.66 deg.
 ExpMin= 8.45D-02 ExpMax= 8.59D+03 ExpMxC= 1.30D+03 IAcc=2 IRadAn=         4 AccDes= 0.00D+00
 Harris functional with IExCor= 1009 and IRadAn=       4 diagonalized for initial guess.
 HarFok:  IExCor= 1009 AccDes= 0.00D+00 IRadAn=         4 IDoV= 1 UseB2=F ITyADJ=14
 ICtDFT=  3500011 ScaDFX=  1.000000  1.000000  1.000000  1.000000
 FoFCou: FMM=F IPFlag=           0 FMFlag=      100000 FMFlg1=           0
         NFxFlg=           0 DoJE=T BraDBF=F KetDBF=T FulRan=T
         wScrn=  0.000000 ICntrl=       500 IOpCl=  0 I1Cent=   200000004 NGrid=           0
         NMat0=    1 NMatS0=      1 NMatT0=    0 NMatD0=    1 NMtDS0=    0 NMtDT0=    0
 Petite list used in FoFCou.
 Keep R1 ints in memory in canonical form, NReq=28335393.
 Requested convergence on RMS density matrix=1.00D-08 within 128 cycles.
 Requested convergence on MAX density matrix=1.00D-06.
 Requested convergence on             energy=1.00D-06.
 No special actions if energy rises.
 Integral accuracy reduced to 1.0D-05 until final iterations.
 Initial convergence to 1.0D-05 achieved.  Increase integral accuracy.
 SCF Done:  E(RM062X) =  -226.523818413     A.U. after   31 cycles
            NFock= 31  Conv=0.40D-08     -V/T= 2.0025
 Calling FoFJK, ICntrl=      2127 FMM=F ISym2X=0 I1Cent= 0 IOpClX= 0 NMat=1 NMatS=1 NMatT=0.
 ***** Axes restored to original set *****
 -------------------------------------------------------------------
 Center     Atomic                   Forces (Hartrees/Bohr)
 Number     Number              X              Y              Z
 -------------------------------------------------------------------
      1        8           0.002412832    0.014200659    0.004068593
      2        8          -0.005673323   -0.004090286    0.002203148
      3        1           0.005230348   -0.015419261   -0.016684758
      4        1           0.000822775   -0.000292670   -0.000762433
      5        8          -0.002792632    0.005601559    0.011175450
 -------------------------------------------------------------------
 Cartesian Forces:  Max     0.016684758 RMS     0.008110516

 GradGradGradGradGradGradGradGradGradGradGradGradGradGradGradGradGradGrad
 Berny optimization.
 FormGI is forming the generalized inverse of G from B-inverse, IUseBI=4.
 Internal  Forces:  Max     0.015022421 RMS     0.005204639
 Search for a saddle point.
 Step number   7 out of a maximum of  100
 All quantities printed in internal units (Hartrees-Bohrs-Radians)
 Swapping is turned off.
 Update second derivatives using D2CorX and points    6    7
 The second derivative matrix:
                          R1        R2        R3        R4        A1
           R1           0.56146
           R2           0.10059   0.46541
           R3           0.04897  -0.00332   0.41980
           R4           0.00729   0.29146   0.00594   0.62193
           A1           0.05217   0.07743   0.02581   0.04925   0.34665
           A2           0.01107  -0.05904   0.04333  -0.05611  -0.03533
           A3           0.00479   0.03059   0.01596   0.02406   0.14505
           D1          -0.00393  -0.11052  -0.00319  -0.08806   0.04604
           D2          -0.01620  -0.04544   0.00629  -0.00734   0.03204
                          A2        A3        D1        D2
           A2           0.26706
           A3          -0.04159   0.14760
           D1           0.03787  -0.06413   0.06356
           D2          -0.00510   0.03083   0.02063   0.00849
 ITU=  0  0  0  0  0  0  0
     Eigenvalues ---   -0.03443   0.00133   0.12197   0.22346   0.25042
     Eigenvalues ---    0.40942   0.42257   0.58908   0.91816
 Eigenvectors required to have negative eigenvalues:
                          D1        A3        D2        A1        R2
   1                    0.71179   0.50417  -0.38581  -0.27573   0.10606
                          R4        A2        R3        R1
   1                    0.04355  -0.03137   0.01199  -0.00455
 RFO step:  Lambda0=1.044996101D-03 Lambda=-4.62566990D-03.
 Linear search not attempted -- option 19 set.
 Iteration  1 RMS(Cart)=  0.05958431 RMS(Int)=  0.20207301
 Iteration  2 RMS(Cart)=  0.02195682 RMS(Int)=  0.13761393
 Iteration  3 RMS(Cart)=  0.00665494 RMS(Int)=  0.07142250
 Iteration  4 RMS(Cart)=  0.00167948 RMS(Int)=  0.00476431
 Iteration  5 RMS(Cart)=  0.00021530 RMS(Int)=  0.00000448
 Iteration  6 RMS(Cart)=  0.00000397 RMS(Int)=  0.00000000
 Iteration  7 RMS(Cart)=  0.00000000 RMS(Int)=  0.00000000
 Variable       Old X    -DE/DX   Delta X   Delta X   Delta X     New X
                                 (Linear)    (Quad)   (Total)
    R1        2.44571   0.00179   0.00000   0.01780   0.01780   2.46351
    R2        2.51028  -0.00022   0.00000   0.13875   0.13875   2.64903
    R3        1.84627   0.00042   0.00000  -0.00273  -0.00273   1.84355
    R4        1.91451   0.00243   0.00000  -0.02483  -0.02483   1.88969
    A1        1.74241  -0.01502   0.00000  -0.16672  -0.16672   1.57569
    A2        1.85459   0.00048   0.00000   0.01039   0.01039   1.86498
    A3        3.09491   0.00196   0.00000   0.02413   0.02413   3.11904
    D1        1.04308   0.00186   0.00000   0.09622   0.09622   1.13930
    D2        0.06891   0.00112   0.00000   0.80727   0.80727   0.87618
         Item               Value     Threshold  Converged?
 Maximum Force            0.015022     0.000450     NO 
 RMS     Force            0.005205     0.000300     NO 
 Maximum Displacement     0.139838     0.001800     NO 
 RMS     Displacement     0.087700     0.001200     NO 
 Predicted change in Energy=-3.348041D-03
 GradGradGradGradGradGradGradGradGradGradGradGradGradGradGradGradGradGrad

                          Input orientation:                          
 ---------------------------------------------------------------------
 Center     Atomic      Atomic             Coordinates (Angstroms)
 Number     Number       Type             X           Y           Z
 ---------------------------------------------------------------------
      1          8           0        0.518091    0.722672   -0.184433
      2          8           0        0.987444   -0.389259    0.308286
      3          1           0       -0.792156    0.265374    0.013538
      4          1           0        0.727402   -1.102277   -0.304665
      5          8           0       -1.721502   -0.066089    0.176034
 ---------------------------------------------------------------------
                    Distance matrix (angstroms):
                    1          2          3          4          5
     1  O    0.000000
     2  O    1.303632   0.000000
     3  H    1.401806   1.918957   0.000000
     4  H    1.840844   0.975563   2.069004   0.000000
     5  O    2.401636   2.731358   0.999978   2.702201   0.000000
 Stoichiometry    H2O3
 Framework group  C1[X(H2O3)]
 Deg. of freedom     9
 Full point group                 C1      NOp   1
 Largest Abelian subgroup         C1      NOp   1
 Largest concise Abelian subgroup C1      NOp   1
                         Standard orientation:                         
 ---------------------------------------------------------------------
 Center     Atomic      Atomic             Coordinates (Angstroms)
 Number     Number       Type             X           Y           Z
 ---------------------------------------------------------------------
      1          8           0        0.592413    0.717661   -0.038894
      2          8           0        1.051077   -0.493283    0.111762
      3          1           0       -0.721642    0.229929   -0.017956
      4          1           0        0.807566   -0.990013   -0.691783
      5          8           0       -1.654230   -0.129368    0.015849
 ---------------------------------------------------------------------
 Rotational constants (GHZ):          35.8241553           7.3333350           6.1854018
 Standard basis: 6-311+G(2df,2p) (5D, 7F)
 There are   135 symmetry adapted cartesian basis functions of A   symmetry.
 There are   120 symmetry adapted basis functions of A   symmetry.
   120 basis functions,   178 primitive gaussians,   135 cartesian basis functions
    13 alpha electrons       13 beta electrons
       nuclear repulsion energy        70.4016399940 Hartrees.
 NAtoms=    5 NActive=    5 NUniq=    5 SFac= 1.00D+00 NAtFMM=   60 NAOKFM=F Big=F
 Integral buffers will be    131072 words long.
 Raffenetti 2 integral format.
 Two-electron integral symmetry is turned on.
 One-electron integrals computed using PRISM.
 NBasis=   120 RedAO= T EigKep=  7.35D-04  NBF=   120
 NBsUse=   120 1.00D-06 EigRej= -1.00D+00 NBFU=   120
 Initial guess from the checkpoint file:  "/scratch/dinius.ab/QMscratch/Gau-44744.chk"
 B after Tr=    -0.000000    0.000000   -0.000000
         Rot=    0.999713   -0.009450    0.001556    0.021976 Ang=  -2.75 deg.
 ExpMin= 8.45D-02 ExpMax= 8.59D+03 ExpMxC= 1.30D+03 IAcc=2 IRadAn=         4 AccDes= 0.00D+00
 Harris functional with IExCor= 1009 and IRadAn=       4 diagonalized for initial guess.
 HarFok:  IExCor= 1009 AccDes= 0.00D+00 IRadAn=         4 IDoV= 1 UseB2=F ITyADJ=14
 ICtDFT=  3500011 ScaDFX=  1.000000  1.000000  1.000000  1.000000
 FoFCou: FMM=F IPFlag=           0 FMFlag=      100000 FMFlg1=           0
         NFxFlg=           0 DoJE=T BraDBF=F KetDBF=T FulRan=T
         wScrn=  0.000000 ICntrl=       500 IOpCl=  0 I1Cent=   200000004 NGrid=           0
         NMat0=    1 NMatS0=      1 NMatT0=    0 NMatD0=    1 NMtDS0=    0 NMtDT0=    0
 Petite list used in FoFCou.
 Keep R1 ints in memory in canonical form, NReq=28335439.
 Requested convergence on RMS density matrix=1.00D-08 within 128 cycles.
 Requested convergence on MAX density matrix=1.00D-06.
 Requested convergence on             energy=1.00D-06.
 No special actions if energy rises.
[...]
 APT charges with hydrogens summed into heavy atoms:
               1
     1  O   -0.060699
     2  O    0.296272
     5  O   -0.235573
 Electronic spatial extent (au):  <R**2>=            187.3776
 Charge=             -0.0000 electrons
 Dipole moment (field-independent basis, Debye):
    X=              2.7266    Y=             -1.7182    Z=             -1.5293  Tot=              3.5673
 Quadrupole moment (field-independent basis, Debye-Ang):
   XX=            -22.0062   YY=            -15.8846   ZZ=            -17.0155
   XY=             -1.6460   XZ=             -1.0490   YZ=              1.7952
 Traceless Quadrupole moment (field-independent basis, Debye-Ang):
   XX=             -3.7041   YY=              2.4175   ZZ=              1.2866
   XY=             -1.6460   XZ=             -1.0490   YZ=              1.7952
 Octapole moment (field-independent basis, Debye-Ang**2):
  XXX=             11.9295  YYY=             -2.9550  ZZZ=             -1.4625  XYY=              1.3467
  XXY=             -1.1355  XXZ=             -0.6941  XZZ=              2.6962  YZZ=             -2.0398
  YYZ=             -2.1510  XYZ=              1.3510
 Hexadecapole moment (field-independent basis, Debye-Ang**3):
 XXXX=           -164.4535 YYYY=            -38.7811 ZZZZ=            -15.6069 XXXY=             -1.1910
 XXXZ=             -0.8813 YYYX=             -1.7984 YYYZ=              2.4216 ZZZX=             -1.0266
 ZZZY=              1.9845 XXYY=            -31.1745 XXZZ=            -29.5073 YYZZ=             -8.9108
 XXYZ=              0.5915 YYXZ=             -1.4608 ZZXY=             -1.3961
 N-N= 7.115250962757D+01 E-N=-6.777576026356D+02  KE= 2.259427505840D+02
  Exact polarizability:  57.431   1.326  19.606  -0.515   0.756  13.936
 Approx polarizability: 146.538  11.009  26.786   0.574   0.223  15.041
 Calling FoFJK, ICntrl=    100127 FMM=F ISym2X=0 I1Cent= 0 IOpClX= 0 NMat=1 NMatS=1 NMatT=0.
 Full mass-weighted force constant matrix:
 Low frequencies --- -692.5961 -572.7254  -15.9799  -10.6840   -0.0004    0.0011
 Low frequencies ---    0.0013   67.3610  267.0405
 ******    2 imaginary frequencies (negative Signs) ****** 
 Diagonal vibrational polarizability:
       13.9980349       5.0176718       5.2733729
 Harmonic frequencies (cm**-1), IR intensities (KM/Mole), Raman scattering
 activities (A**4/AMU), depolarization ratios for plane and unpolarized
 incident light, reduced masses (AMU), force constants (mDyne/A),
 and normal coordinates:
                      1                      2                      3
                      A                      A                      A
 Frequencies --   -688.4519              -572.4721               266.7847
 Red. masses --      1.0958                 1.5745                 9.9140
 Frc consts  --      0.3060                 0.3040                 0.4157
 IR Inten    --     74.3528                46.0275                10.0886
  Atom  AN      X      Y      Z        X      Y      Z        X      Y      Z
     1   8    -0.02   0.00  -0.02     0.08  -0.01  -0.01     0.54   0.02   0.00
     2   8     0.04  -0.01   0.00    -0.12   0.05  -0.00     0.00   0.12  -0.01
     3   1     0.06  -0.29   0.95    -0.12   0.79   0.43    -0.46  -0.42  -0.02
     4   1     0.01  -0.00   0.00    -0.36   0.07   0.01     0.10   0.11  -0.02
     5   8    -0.02   0.03  -0.04     0.07  -0.09  -0.02    -0.52  -0.12   0.01
                      4                      5                      6
                      A                      A                      A
 Frequencies --    456.6680               650.3936              1232.2900
 Red. masses --      1.4962                 1.3976                11.3365
 Frc consts  --      0.1838                 0.3483                10.1427
 IR Inten    --     21.1835                38.5054               324.9051
  Atom  AN      X      Y      Z        X      Y      Z        X      Y      Z
     1   8     0.04   0.02  -0.01    -0.05  -0.04  -0.00    -0.09  -0.56   0.08
     2   8    -0.16   0.01  -0.01     0.11  -0.03  -0.00     0.03   0.59  -0.10
     3   1     0.08  -0.17   0.11    -0.21   0.76   0.09    -0.01  -0.36   0.05
     4   1     0.95  -0.08  -0.10     0.58  -0.09  -0.03     0.14  -0.33   0.22
     5   8     0.06  -0.02   0.02    -0.09   0.03   0.00     0.04   0.01   0.00
                      7                      8                      9
                      A                      A                      A
 Frequencies --   1452.8667              3611.3164              4120.7698
 Red. masses --      1.1401                 1.0673                 1.0638
 Frc consts  --      1.4179                 8.2007                10.6435
 IR Inten    --     70.2687               137.4799               222.5157
  Atom  AN      X      Y      Z        X      Y      Z        X      Y      Z
     1   8    -0.01  -0.06  -0.04     0.00  -0.00   0.00     0.00  -0.01   0.00
     2   8     0.00   0.00   0.06    -0.01  -0.02  -0.06    -0.00   0.01   0.00
     3   1    -0.00  -0.02  -0.02     0.03   0.00  -0.00     0.98   0.19  -0.01
     4   1     0.08   0.93  -0.34     0.11   0.39   0.91    -0.01  -0.01  -0.02
     5   8     0.00  -0.00   0.00    -0.00  -0.00  -0.00    -0.06  -0.01   0.00

 -------------------
 - Thermochemistry -
 -------------------
 Temperature   298.150 Kelvin.  Pressure   1.00000 Atm.
 Atom     1 has atomic number  8 and mass  15.99491
 Atom     2 has atomic number  8 and mass  15.99491
 Atom     3 has atomic number  1 and mass   1.00783
 Atom     4 has atomic number  1 and mass   1.00783
 Atom     5 has atomic number  8 and mass  15.99491
 Molecular mass:    50.00039 amu.
 Principal axes and moments of inertia in atomic units:
                           1         2         3
     Eigenvalues --    53.17956 233.57470 281.09468
           X            0.99985  -0.01528  -0.00802
           Y            0.01572   0.99818   0.05823
           Z            0.00711  -0.05834   0.99827
 This molecule is an asymmetric top.
 Rotational symmetry number  1.
 Rotational temperatures (Kelvin)      1.62871     0.37082     0.30813
 Rotational constants (GHZ):          33.93674     7.72661     6.42040
    2 imaginary frequencies ignored.
 Zero-point vibrational energy      70526.4 (Joules/Mol)
                                   16.85621 (Kcal/Mol)
 Warning -- explicit consideration of   2 degrees of freedom as
           vibrations may cause significant error
 Vibrational temperatures:    383.84   657.04   935.77  1772.99  2090.35
          (Kelvin)           5195.88  5928.87
 
 Zero-point correction=                           0.026862 (Hartree/Particle)
 Thermal correction to Energy=                    0.030571
 Thermal correction to Enthalpy=                  0.031515
 Thermal correction to Gibbs Free Energy=         0.001469
 Sum of electronic and zero-point Energies=           -226.505077
 Sum of electronic and thermal Energies=              -226.501368
 Sum of electronic and thermal Enthalpies=            -226.500424
 Sum of electronic and thermal Free Energies=         -226.530470
 
                     E (Thermal)             CV                S
                      KCal/Mol        Cal/Mol-Kelvin    Cal/Mol-Kelvin
 Total                   19.184             10.242             63.238
 Electronic               0.000              0.000              0.000
 Translational            0.889              2.981             37.652
 Rotational               0.889              2.981             22.772
 Vibrational             17.406              4.280              2.814
 Vibration     1          0.672              1.734              1.617
 Vibration     2          0.815              1.346              0.776
                       Q            Log10(Q)             Ln(Q)
 Total Bot       0.211061D+00         -0.675592         -1.555607
 Total V=0       0.478735D+12         11.680095         26.894414
 Vib (Bot)       0.718021D-12        -12.143863        -27.962278
 Vib (Bot)    1  0.725591D+00         -0.139308         -0.320769
 Vib (Bot)    2  0.373478D+00         -0.427734         -0.984895
 Vib (V=0)       0.162864D+01          0.211824          0.487743
 Vib (V=0)    1  0.138118D+01          0.140251          0.322940
 Vib (V=0)    2  0.112409D+01          0.050800          0.116972
 Electronic      0.100000D+01          0.000000          0.000000
 Translational   0.138968D+08          7.142914         16.447167
 Rotational      0.211523D+05          4.325357          9.959503
 ***** Axes restored to original set *****
 -------------------------------------------------------------------
 Center     Atomic                   Forces (Hartrees/Bohr)
 Number     Number              X              Y              Z
 -------------------------------------------------------------------
      1        8           0.002037589   -0.004961107    0.000483183
      2        8           0.000042865    0.000008674    0.000031222
      3        1          -0.005643623    0.013664900   -0.001336946
      4        1          -0.000020306   -0.000012593   -0.000028949
      5        8           0.003583474   -0.008699875    0.000851490
 -------------------------------------------------------------------
 Cartesian Forces:  Max     0.013664900 RMS     0.004751306
 FormGI is forming the generalized inverse of G from B-inverse, IUseBI=4.

 GradGradGradGradGradGradGradGradGradGradGradGradGradGradGradGradGradGrad
 Berny optimization.
 Internal  Forces:  Max     0.000052122 RMS     0.000030342
 Search for a saddle point.
 Step number   1 out of a maximum of    2
 All quantities printed in internal units (Hartrees-Bohrs-Radians)
 Swapping is turned off.
 Second derivative matrix not updated -- analytic derivatives used.
 The second derivative matrix:
                          R1        R2        R3        R4        A1
           R1           0.49268
           R2           0.02919   0.04001
           R3           0.02716  -0.00058   0.46816
           R4          -0.04392   0.01445   0.00236   0.59832
           A1           0.05459   0.06330   0.00671  -0.04467   0.20397
           A2           0.07874   0.00178  -0.00640  -0.00229   0.01699
           A3           0.00158   0.00081  -0.00139   0.00125  -0.01088
           D1          -0.00915   0.00232   0.00654  -0.00430   0.01354
           D2          -0.00000   0.00000   0.00000   0.00000  -0.00001
                          A2        A3        D1        D2
           A2           0.24391
           A3           0.00413  -0.02106
           D1           0.00471  -0.00593   0.02539
           D2           0.00000  -0.01683  -0.00000   0.00000
 ITU=  0
     Eigenvalues ---   -0.03144   0.00842   0.01664   0.02512   0.21185
     Eigenvalues ---    0.22065   0.45735   0.51561   0.62718
 Eigenvectors required to have negative eigenvalues:
                          A3        D2        D1        R2        A1
   1                   -0.87550  -0.46875  -0.08261   0.06082  -0.05420
                          A2        R4        R1        R3
   1                    0.01731  -0.00396   0.00054  -0.00034
 Angle between quadratic step and forces=  82.07 degrees.
 Linear search not attempted -- option 19 set.
 Iteration  1 RMS(Cart)=  0.00004905 RMS(Int)=  0.00102336
 Iteration  2 RMS(Cart)=  0.00000421 RMS(Int)=  0.00101349
 Iteration  3 RMS(Cart)=  0.00000152 RMS(Int)=  0.00100996
 Iteration  4 RMS(Cart)=  0.00000106 RMS(Int)=  0.00100749
 Iteration  5 RMS(Cart)=  0.00000080 RMS(Int)=  0.00100564
 Variable       Old X    -DE/DX   Delta X   Delta X   Delta X     New X
                                 (Linear)    (Quad)   (Total)
    R1        2.44065   0.00001   0.00000  -0.00006  -0.00001   2.44064
    R2        3.12754   0.00003   0.00000   0.00060   0.00007   3.12761
    R3        1.85248   0.00003   0.00000   0.00007   0.00001   1.85248
    R4        1.78125  -0.00002   0.00000  -0.00005  -0.00001   1.78124
    A1        1.20279   0.00005   0.00000   0.00016   0.00002   1.20281
    A2        1.87709  -0.00002   0.00000  -0.00004  -0.00000   1.87708
    A3        3.14145  -0.00005   0.00000   0.00014   0.00002   3.14147
    D1        1.46562  -0.00003   0.00000  -0.00115  -0.00013   1.46549
    D2        1.20980  -0.00000   0.00000   0.00318   0.00040   1.21021
         Item               Value     Threshold  Converged?
 Maximum Force            0.000052     0.000450     YES
 RMS     Force            0.000030     0.000300     YES
 Maximum Displacement     0.000113     0.001800     YES
 RMS     Displacement     0.000057     0.001200     YES
 Predicted change in Energy=-4.693177D-09
 Optimization completed.
    -- Stationary point found.
                           ----------------------------
                           !   Optimized Parameters   !
                           ! (Angstroms and Degrees)  !
 --------------------------                            --------------------------
 ! Name  Definition              Value          Derivative Info.                !
 --------------------------------------------------------------------------------
 ! R1    R(1,2)                  1.2915         -DE/DX =    0.0                 !
 ! R2    R(1,3)                  1.655          -DE/DX =    0.0                 !
 ! R3    R(2,4)                  0.9803         -DE/DX =    0.0                 !
 ! R4    R(3,5)                  0.9426         -DE/DX =    0.0                 !
 ! A1    A(2,1,3)               68.9146         -DE/DX =    0.0001              !
 ! A2    A(1,2,4)              107.5493         -DE/DX =    0.0                 !
 ! A3    A(1,3,5)              179.992          -DE/DX =   -0.0001              !
 ! D1    D(3,1,2,4)             83.9739         -DE/DX =    0.0                 !
 ! D2    D(2,1,3,5)             69.3167         -DE/DX =    0.0                 !
 --------------------------------------------------------------------------------
 GradGradGradGradGradGradGradGradGradGradGradGradGradGradGradGradGradGrad


 ----------------------------------------------------------------------

 Electric dipole moment (input orientation):
 (Debye = 10**-18 statcoulomb cm , SI units = C m)
                  (au)            (Debye)         (10**-30 SI)
   Tot        0.140347D+01      0.356727D+01      0.118991D+02
   x          0.114961D+01      0.292201D+01      0.974679D+01
   y         -0.688618D+00     -0.175029D+01     -0.583834D+01
   z         -0.417066D+00     -0.106008D+01     -0.353603D+01

 Dipole polarizability, Alpha (input orientation).
 (esu units = cm**3 , SI units = C**2 m**2 J**-1)
 Alpha(0;0):
               (au)            (10**-24 esu)      (10**-40 SI)
   iso        0.303244D+02      0.449362D+01      0.499983D+01
   aniso      0.410510D+02      0.608312D+01      0.676839D+01
   xx         0.559784D+02      0.829514D+01      0.922959D+01
   yx         0.612805D+01      0.908083D+00      0.101038D+01
   yy         0.204174D+02      0.302555D+01      0.336638D+01
   zx        -0.426199D+01     -0.631562D+00     -0.702707D+00
   zy        -0.197206D+01     -0.292229D+00     -0.325149D+00
   zz         0.145775D+02      0.216016D+01      0.240350D+01

 ----------------------------------------------------------------------

 Dipole orientation:
     8          0.72666035         -1.86355375          0.52132989
     8          1.03224700          0.41853869          1.33091631
     1         -0.55028789          0.20779682         -1.44346627
     1         -0.50730933          0.89870610          2.24243871
     8         -1.27733039          1.38758600         -2.56255250

 Electric dipole moment (dipole orientation):
 (Debye = 10**-18 statcoulomb cm , SI units = C m)
                  (au)            (Debye)         (10**-30 SI)
   Tot        0.140347D+01      0.356727D+01      0.118991D+02
   x          0.000000D+00      0.000000D+00      0.000000D+00
   y          0.000000D+00      0.000000D+00      0.000000D+00
   z          0.140347D+01      0.356727D+01      0.118991D+02

 Dipole polarizability, Alpha (dipole orientation).
 (esu units = cm**3 , SI units = C**2 m**2 J**-1)
 Alpha(0;0):
               (au)            (10**-24 esu)      (10**-40 SI)
   iso        0.303244D+02      0.449362D+01      0.499983D+01
   aniso      0.410510D+02      0.608312D+01      0.676839D+01
   xx         0.222482D+02      0.329685D+01      0.366824D+01
   yx        -0.957571D+01     -0.141897D+01     -0.157882D+01
   yy         0.283896D+02      0.420691D+01      0.468082D+01
   zx         0.143132D+02      0.212100D+01      0.235993D+01
   zy        -0.134377D+02     -0.199126D+01     -0.221557D+01
   zz         0.403355D+02      0.597710D+01      0.665042D+01

 ----------------------------------------------------------------------
 1\1\GINC-C0297\Freq\RM062X\6-311+G(2df,2p)\H2O3\DINIUS.AB\29-Oct-2018\
 0\\#N Geom=AllCheck Guess=TCheck SCRF=Check GenChk RM062X/6-311+G(2df,
 2p) Freq\\Title\\0,1\O,0.7171487034,0.7869122707,-0.2508613783\O,0.771
 975909,-0.3566963734,0.3468138939\H,-0.8003295578,0.1950082316,0.04241
 70089\H,0.6950563687,-1.052720635,-0.3391878485\O,-1.6645714233,-0.142
 083494,0.209578324\\Version=EM64L-G16RevA.03\State=1-A\HF=-226.5319391
 \RMSD=1.192e-09\RMSF=4.751e-03\ZeroPoint=0.0268621\Thermal=0.0305711\D
 ipole=1.1496087,-0.6886176,-0.4170661\DipoleDeriv=0.0993271,0.0037465,
 -0.0101545,-1.3563494,-0.0958212,-0.0488451,0.7149237,0.0490414,-0.185
 6026,0.0326331,0.1202865,-0.0558326,1.5668954,-0.0339937,0.0233679,-0.
 5367087,-0.0514649,0.0590171,-0.4488162,-0.1240195,0.084644,-0.2146669
 ,0.1818847,0.0473394,0.1008366,0.0421081,0.2526009,0.2374361,-0.038556
 3,0.006272,-0.1355092,0.3108048,0.01853,-0.1513421,0.012285,0.2829173,
 0.0794199,0.0385427,-0.0249289,0.1396301,-0.3628747,-0.0403923,-0.1277
 095,-0.0519696,-0.4089327\Polar=55.9784017,6.1280488,20.4174469,-4.261
 9901,-1.9720619,14.5774937\Quadrupole=-2.3042244,2.0850424,0.219182,-2
 .0412443,-0.1790357,0.8370865\PG=C01 [X(H2O3)]\NImag=2\\0.01298611,0.0
 0486421,0.41844732,-0.00095455,-0.16548368,0.11078663,0.00020730,0.021
 86781,-0.01633545,0.04513715,0.00346097,-0.35535617,0.17131976,-0.0146
 3482,0.56553632,-0.00794615,0.13716665,-0.14119222,0.05625928,0.049507
 81,0.43974105,0.01447128,-0.04273429,0.02291555,-0.05459301,0.06895724
 ,-0.02897271,0.53712788,-0.01192290,-0.00632098,0.00423686,0.01769716,
 0.00408655,-0.00147928,0.17757977,0.05994810,0.00511414,0.00268836,0.0
 0046488,-0.00868570,0.00027903,0.00399584,-0.09067981,-0.03387806,-0.0
 0104065,0.00219226,-0.00527338,0.00587246,-0.01017538,-0.01829032,-0.0
 3540275,-0.00634513,0.00528784,0.00098601,0.01087308,0.00110141,-0.057
 75158,-0.00928008,-0.02129940,-0.20712281,-0.18772694,-0.00015345,-0.0
 0155464,-0.00111111,0.01890268,0.26777013,0.00335237,0.02899846,0.0295
 6081,-0.02955362,-0.22627408,-0.29779056,-0.00289211,-0.00080086,0.001
 63570,0.02710889,0.19774152,0.26852200,-0.02985694,0.02127565,-0.01149
 801,0.01942394,-0.03949307,0.01606233,-0.49066102,-0.18864187,0.093265
 37,0.00345517,0.00144876,0.00198447,0.49763885,0.00249631,0.00098141,-
 0.00079286,-0.00363074,-0.00714389,0.00253175,-0.20364927,-0.05615903,
 0.03202178,-0.00062683,-0.00134110,0.00033496,0.20541054,0.06366261,0.
 00043419,-0.00336980,0.00037989,-0.00168452,0.00516748,-0.00475412,0.0
 9962908,0.03192135,-0.00505577,0.00143539,0.00037659,-0.00192795,-0.09
 981414,-0.03409563,0.01135795\\-0.00203759,0.00496111,-0.00048318,-0.0
 0004286,-0.00000867,-0.00003122,0.00564362,-0.01366490,0.00133695,0.00
 002031,0.00001259,0.00002895,-0.00358347,0.00869987,-0.00085149\\\@


 ALL PAPERS THAT YOU SAVE WILL NEVER BE NEEDED UNTIL
 SUCH TIME AS THEY ARE DISPOSED OF, WHEN THEY BECOME
 ESSENTIAL.

           -- JOHN CORCORAN IN
              PAUL DICKSON'S "THE OFFICIAL RULES"
 Job cpu time:       0 days  0 hours  3 minutes  7.4 seconds.
 Elapsed time:       0 days  0 hours  3 minutes  7.8 seconds.
 File lengths (MBytes):  RWF=    272 Int=      0 D2E=      0 Chk=     32 Scr=     32
 Normal termination of Gaussian 16 at Mon Oct 29 18:50:46 2018.
