 Entering Gaussian System, Link 0=g16
 Input=practice1.com
 Output=practice1.log
 Initial command:
 /shared/centos7/gaussian/g16/l1.exe "/scratch/dinius.ab/QMscratch/Gau-8885.inp" -scrdir="/scratch/dinius.ab/QMscratch/"
 Entering Link 1 = /shared/centos7/gaussian/g16/l1.exe PID=      8886.
  
 Copyright (c) 1988,1990,1992,1993,1995,1998,2003,2009,2016,
            Gaussian, Inc.  All Rights Reserved.
  
 This is part of the Gaussian(R) 16 program.  It is based on
 the Gaussian(R) 09 system (copyright 2009, Gaussian, Inc.),
 the Gaussian(R) 03 system (copyright 2003, Gaussian, Inc.),
 the Gaussian(R) 98 system (copyright 1998, Gaussian, Inc.),
 the Gaussian(R) 94 system (copyright 1995, Gaussian, Inc.),
 the Gaussian 92(TM) system (copyright 1992, Gaussian, Inc.),
 the Gaussian 90(TM) system (copyright 1990, Gaussian, Inc.),
 the Gaussian 88(TM) system (copyright 1988, Gaussian, Inc.),
 the Gaussian 86(TM) system (copyright 1986, Carnegie Mellon
 University), and the Gaussian 82(TM) system (copyright 1983,
 Carnegie Mellon University). Gaussian is a federally registered
 trademark of Gaussian, Inc.
  
 This software contains proprietary and confidential information,
 including trade secrets, belonging to Gaussian, Inc.
  
 This software is provided under written license and may be
 used, copied, transmitted, or stored only in accord with that
 written license.
  
 The following legend is applicable only to US Government
 contracts under FAR:
  
                    RESTRICTED RIGHTS LEGEND
  
 Use, reproduction and disclosure by the US Government is
 subject to restrictions as set forth in subparagraphs (a)
 and (c) of the Commercial Computer Software - Restricted
 Rights clause in FAR 52.227-19.
  
 Gaussian, Inc.
 340 Quinnipiac St., Bldg. 40, Wallingford CT 06492
  
  
 ---------------------------------------------------------------
 Warning -- This program may not be used in any manner that
 competes with the business of Gaussian, Inc. or will provide
 assistance to any competitor of Gaussian, Inc.  The licensee
 of this program is prohibited from giving any competitor of
 Gaussian, Inc. access to this program.  By using this program,
 the user acknowledges that Gaussian, Inc. is engaged in the
 business of creating and licensing software in the field of
 computational chemistry and represents and warrants to the
 licensee that it is not a competitor of Gaussian, Inc. and that
 it will not use this program in any manner prohibited above.
 ---------------------------------------------------------------
  

 Cite this work as:
 Gaussian 16, Revision A.03,
 M. J. Frisch, G. W. Trucks, H. B. Schlegel, G. E. Scuseria, 
 M. A. Robb, J. R. Cheeseman, G. Scalmani, V. Barone, 
 G. A. Petersson, H. Nakatsuji, X. Li, M. Caricato, A. V. Marenich, 
 J. Bloino, B. G. Janesko, R. Gomperts, B. Mennucci, H. P. Hratchian, 
 J. V. Ortiz, A. F. Izmaylov, J. L. Sonnenberg, D. Williams-Young, 
 F. Ding, F. Lipparini, F. Egidi, J. Goings, B. Peng, A. Petrone, 
 T. Henderson, D. Ranasinghe, V. G. Zakrzewski, J. Gao, N. Rega, 
 G. Zheng, W. Liang, M. Hada, M. Ehara, K. Toyota, R. Fukuda, 
 J. Hasegawa, M. Ishida, T. Nakajima, Y. Honda, O. Kitao, H. Nakai, 
 T. Vreven, K. Throssell, J. A. Montgomery, Jr., J. E. Peralta, 
 F. Ogliaro, M. J. Bearpark, J. J. Heyd, E. N. Brothers, K. N. Kudin, 
 V. N. Staroverov, T. A. Keith, R. Kobayashi, J. Normand, 
 K. Raghavachari, A. P. Rendell, J. C. Burant, S. S. Iyengar, 
 J. Tomasi, M. Cossi, J. M. Millam, M. Klene, C. Adamo, R. Cammi, 
 J. W. Ochterski, R. L. Martin, K. Morokuma, O. Farkas, 
 J. B. Foresman, and D. J. Fox, Gaussian, Inc., Wallingford CT, 2016.
 
 ******************************************
 Gaussian 16:  EM64L-G16RevA.03 25-Dec-2016
                26-Oct-2018 
 ******************************************
 ----------------------------------------------------------------------
 #m062x/6-311+g(2df,2p) Opt=(ModRedun,Loose,maxcycle=1000) Int(Grid=SG1
 ) freq
 ----------------------------------------------------------------------
 1/6=1000,7=-1,18=120,19=15,26=2,38=1/1,3;
 2/9=110,12=2,17=6,18=5,40=1/2;
 3/5=4,6=6,7=214,11=2,25=1,30=1,71=1,74=-55,75=1/1,2,3;
 4//1;
 5/5=2,38=5/2;
 6/7=2,8=2,9=2,10=2,28=1/1;
 7//1,2,3,16;
 1/6=1000,7=-1,18=20,19=15,26=2/3(2);
 2/9=110/2;
 99//99;
 2/9=110/2;
 3/5=4,6=6,7=214,11=2,25=1,30=1,71=1,74=-55,75=1/1,2,3;
 4/5=5,16=3,69=1/1;
 5/5=2,38=5/2;
 7//1,2,3,16;
 1/6=1000,7=-1,18=20,19=15,26=2/3(-5);
 2/9=110/2;
 6/7=2,8=2,9=2,10=2,19=2,28=1/1;
 99/9=1/99;
 -----
 Title
 -----
 Symbolic Z-matrix:
 Charge =  0 Multiplicity = 1
 O                     1.45958   11.42397  -0.44334 
 O                     0.26879   10.53378  -0.43201 
 H                     1.33094   11.90968   0.41049 
 H                    -0.10398   10.96132   0.37933 
 O                     0.89226   12.26236   1.17986 
 
 The following ModRedundant input section has been read:
 

 GradGradGradGradGradGradGradGradGradGradGradGradGradGradGradGradGradGrad
 Berny optimization.
 Initialization pass.
                           ----------------------------
                           !    Initial Parameters    !
                           ! (Angstroms and Degrees)  !
 --------------------------                            --------------------------
 ! Name  Definition              Value          Derivative Info.                !
 --------------------------------------------------------------------------------
 ! R1    R(1,2)                  1.4868         estimate D2E/DX2                !
 ! R2    R(1,3)                  0.9907         estimate D2E/DX2                !
 ! R3    R(2,4)                  0.99           estimate D2E/DX2                !
 ! R4    R(3,5)                  0.9533         estimate D2E/DX2                !
 ! A1    A(2,1,3)              100.5431         estimate D2E/DX2                !
 ! A2    A(1,2,4)               92.823          estimate D2E/DX2                !
 ! A3    A(1,3,5)              159.5053         estimate D2E/DX2                !
 ! D1    D(3,1,2,4)              6.3065         estimate D2E/DX2                !
 ! D2    D(2,1,3,5)            -19.4348         estimate D2E/DX2                !
 --------------------------------------------------------------------------------
 Trust Radius=3.00D-01 FncErr=1.00D-05 GrdErr=1.00D-04 EigMax=2.50D+02 EigMin=1.00D-04
 Number of steps in this run=    100 maximum allowed number of steps=    100.
 GradGradGradGradGradGradGradGradGradGradGradGradGradGradGradGradGradGrad

                          Input orientation:                          
 ---------------------------------------------------------------------
 Center     Atomic      Atomic             Coordinates (Angstroms)
 Number     Number       Type             X           Y           Z
 ---------------------------------------------------------------------
      1          8           0        1.459580   11.423970   -0.443340
      2          8           0        0.268790   10.533780   -0.432010
      3          1           0        1.330940   11.909680    0.410490
      4          1           0       -0.103980   10.961320    0.379330
      5          8           0        0.892260   12.262360    1.179860
 ---------------------------------------------------------------------
                    Distance matrix (angstroms):
                    1          2          3          4          5
     1  O    0.000000
     2  O    1.486791   0.000000
     3  H    0.990701   1.931598   0.000000
     4  H    1.826349   0.989960   1.720277   0.000000
     5  O    1.912989   2.444346   0.953286   1.823745   0.000000
 Stoichiometry    H2O3
 Framework group  C1[X(H2O3)]
 Deg. of freedom     9
 Full point group                 C1      NOp   1
 Largest Abelian subgroup         C1      NOp   1
 Largest concise Abelian subgroup C1      NOp   1
                         Standard orientation:                         
 ---------------------------------------------------------------------
 Center     Atomic      Atomic             Coordinates (Angstroms)
 Number     Number       Type             X           Y           Z
 ---------------------------------------------------------------------
      1          8           0        0.267158    0.786162   -0.006785
      2          8           0        1.105369   -0.441757    0.006127
      3          1           0       -0.638234    0.388221    0.051492
      4          1           0        0.317423   -1.039166   -0.041461
      5          8           0       -1.332426   -0.263037   -0.000595
 ---------------------------------------------------------------------
 Rotational constants (GHZ):          32.9411594          10.1877513           7.7825433
 Standard basis: 6-311+G(2df,2p) (5D, 7F)
 There are   135 symmetry adapted cartesian basis functions of A   symmetry.
 There are   120 symmetry adapted basis functions of A   symmetry.
   120 basis functions,   178 primitive gaussians,   135 cartesian basis functions
    13 alpha electrons       13 beta electrons
       nuclear repulsion energy        74.4669803999 Hartrees.
 NAtoms=    5 NActive=    5 NUniq=    5 SFac= 1.00D+00 NAtFMM=   60 NAOKFM=F Big=F
 Integral buffers will be    131072 words long.
 Raffenetti 2 integral format.
 Two-electron integral symmetry is turned on.
 One-electron integrals computed using PRISM.
 NBasis=   120 RedAO= T EigKep=  6.17D-04  NBF=   120
 NBsUse=   120 1.00D-06 EigRej= -1.00D+00 NBFU=   120
 ExpMin= 8.45D-02 ExpMax= 8.59D+03 ExpMxC= 1.30D+03 IAcc=2 IRadAn=         4 AccDes= 0.00D+00
 Harris functional with IExCor= 1009 and IRadAn=       4 diagonalized for initial guess.
 HarFok:  IExCor= 1009 AccDes= 0.00D+00 IRadAn=         4 IDoV= 1 UseB2=F ITyADJ=14
 ICtDFT=  3500011 ScaDFX=  1.000000  1.000000  1.000000  1.000000
 FoFCou: FMM=F IPFlag=           0 FMFlag=      100000 FMFlg1=           0
         NFxFlg=           0 DoJE=T BraDBF=F KetDBF=T FulRan=T
         wScrn=  0.000000 ICntrl=       500 IOpCl=  0 I1Cent=   200000004 NGrid=           0
         NMat0=    1 NMatS0=      1 NMatT0=    0 NMatD0=    1 NMtDS0=    0 NMtDT0=    0
 Petite list used in FoFCou.
 Keep R1 ints in memory in canonical form, NReq=28336113.
 Requested convergence on RMS density matrix=1.00D-08 within 128 cycles.
 Requested convergence on MAX density matrix=1.00D-06.
 Requested convergence on             energy=1.00D-06.
 No special actions if energy rises.
 Rare condition: small coef for last iteration:  0.000D+00
 Rare condition: small coef for last iteration:  0.000D+00
 Rare condition: small coef for last iteration:  0.000D+00
 Rare condition: small coef for last iteration:  0.000D+00
 Rare condition: small coef for last iteration:  0.000D+00
 Rare condition: small coef for last iteration:  0.000D+00
 Rare condition: small coef for last iteration:  0.000D+00
 SCF Done:  E(RM062X) =  -226.434973381     A.U. after   33 cycles
            NFock= 33  Conv=0.62D-08     -V/T= 2.0001

 **********************************************************************

            Population analysis using the SCF density.

 **********************************************************************

 Orbital symmetries:
       Occupied  (A) (A) (A) (A) (A) (A) (A) (A) (A) (A) (A) (A)
                 (A)
       Virtual   (A) (A) (A) (A) (A) (A) (A) (A) (A) (A) (A) (A)
                 (A) (A) (A) (A) (A) (A) (A) (A) (A) (A) (A) (A)
                 (A) (A) (A) (A) (A) (A) (A) (A) (A) (A) (A) (A)
                 (A) (A) (A) (A) (A) (A) (A) (A) (A) (A) (A) (A)
                 (A) (A) (A) (A) (A) (A) (A) (A) (A) (A) (A) (A)
                 (A) (A) (A) (A) (A) (A) (A) (A) (A) (A) (A) (A)
                 (A) (A) (A) (A) (A) (A) (A) (A) (A) (A) (A) (A)
                 (A) (A) (A) (A) (A) (A) (A) (A) (A) (A) (A) (A)
                 (A) (A) (A) (A) (A) (A) (A) (A) (A) (A) (A)
 The electronic state is 1-A.
 Alpha  occ. eigenvalues --  -19.77297 -19.76312 -19.70032  -1.32788  -1.15757
 Alpha  occ. eigenvalues --   -1.03784  -0.70271  -0.58848  -0.57916  -0.54848
 Alpha  occ. eigenvalues --   -0.44171  -0.40426  -0.40038
 Alpha virt. eigenvalues --   -0.22515  -0.00841   0.06374   0.11927   0.13267
 Alpha virt. eigenvalues --    0.13891   0.16723   0.17694   0.19753   0.20122
 Alpha virt. eigenvalues --    0.21073   0.21670   0.26071   0.32801   0.36416
 Alpha virt. eigenvalues --    0.42067   0.48562   0.66000   0.68698   0.78362
 Alpha virt. eigenvalues --    0.81681   0.84979   0.92802   0.94677   0.97208
 Alpha virt. eigenvalues --    0.97649   1.03168   1.04940   1.07646   1.09008
 Alpha virt. eigenvalues --    1.13706   1.25679   1.35786   1.37027   1.47702
 Alpha virt. eigenvalues --    1.48644   1.53146   1.54850   1.63222   1.69928
 Alpha virt. eigenvalues --    1.78973   1.83670   2.01296   2.03957   2.17022
 Alpha virt. eigenvalues --    2.23765   2.27517   2.34434   2.42362   2.53502
 Alpha virt. eigenvalues --    2.60273   2.70694   2.95554   3.48909   3.58963
 Alpha virt. eigenvalues --    3.70692   3.78738   4.04219   4.24308   4.42753
 Alpha virt. eigenvalues --    4.48002   4.64431   4.73413   4.91086   4.93757
 Alpha virt. eigenvalues --    4.94755   4.97937   4.98148   4.99880   5.01334
 Alpha virt. eigenvalues --    5.01429   5.04272   5.08061   5.08503   5.15162
 Alpha virt. eigenvalues --    5.17790   5.19803   5.36393   5.40283   5.46907
 Alpha virt. eigenvalues --    5.59041   5.72018   5.85960   6.00636   6.10760
 Alpha virt. eigenvalues --    6.42135   6.60786   6.63033   6.69419   6.76377
 Alpha virt. eigenvalues --    6.79130   6.87840   6.91693   6.96938   7.08510
 Alpha virt. eigenvalues --    7.10468   7.17804   7.22475   7.27324   7.40869
 Alpha virt. eigenvalues --    7.46334   7.68447   7.97819   8.38761  49.87835
 Alpha virt. eigenvalues --   49.90366  50.11984
          Condensed to atoms (all electrons):
               1          2          3          4          5
     1  O    7.857448   0.209111   0.092670  -0.032561   0.006898
     2  O    0.209111   7.742619  -0.022658   0.240152  -0.045159
     3  H    0.092670  -0.022658   0.434240  -0.019740   0.198240
     4  H   -0.032561   0.240152  -0.019740   0.486841   0.057560
     5  O    0.006898  -0.045159   0.198240   0.057560   8.109825
 Mulliken charges:
               1
     1  O   -0.133566
     2  O   -0.124064
     3  H    0.317247
     4  H    0.267747
     5  O   -0.327364
 Sum of Mulliken charges =  -0.00000
 Mulliken charges with hydrogens summed into heavy atoms:
               1
     1  O   -0.133566
     2  O    0.143683
     5  O   -0.010117
 Electronic spatial extent (au):  <R**2>=            159.7622
 Charge=             -0.0000 electrons
 Dipole moment (field-independent basis, Debye):
    X=              0.2577    Y=             -0.7991    Z=             -0.0906  Tot=              0.8446
 Quadrupole moment (field-independent basis, Debye-Ang):
   XX=            -21.6680   YY=            -16.1012   ZZ=            -16.9227
   XY=             -1.3235   XZ=              0.0629   YZ=              0.1506
 Traceless Quadrupole moment (field-independent basis, Debye-Ang):
   XX=             -3.4374   YY=              2.1294   ZZ=              1.3079
   XY=             -1.3235   XZ=              0.0629   YZ=              0.1506
 Octapole moment (field-independent basis, Debye-Ang**2):
  XXX=              4.6909  YYY=             -2.7096  ZZZ=             -0.0600  XYY=              0.9129
  XXY=              1.5952  XXZ=             -0.4704  XZZ=             -0.8445  YZZ=             -0.0223
  YYZ=             -0.2363  XYZ=             -0.1999
 Hexadecapole moment (field-independent basis, Debye-Ang**3):
 XXXX=           -130.8150 YYYY=            -42.9407 ZZZZ=            -13.3606 XXXY=             -1.5055
 XXXZ=              0.9405 YYYX=             -3.7146 YYYZ=              0.0968 ZZZX=              0.0806
 ZZZY=              0.0885 XXYY=            -27.8905 XXZZ=            -21.3159 YYZZ=             -9.8783
 XXYZ=              0.2764 YYXZ=             -0.0116 ZZXY=              0.2476
 N-N= 7.446698039995D+01 E-N=-6.849063280965D+02  KE= 2.264120445179D+02
 Calling FoFJK, ICntrl=      2127 FMM=F ISym2X=0 I1Cent= 0 IOpClX= 0 NMat=1 NMatS=1 NMatT=0.
 ***** Axes restored to original set *****
 -------------------------------------------------------------------
 Center     Atomic                   Forces (Hartrees/Bohr)
 Number     Number              X              Y              Z
 -------------------------------------------------------------------
      1        8          -0.021493501   -0.156429504   -0.170349525
      2        8           0.067851218    0.052204642   -0.000717640
      3        1           0.026818093    0.029323518   -0.001503394
      4        1          -0.007370048   -0.009250954   -0.007608227
      5        8          -0.065805762    0.084152297    0.180178787
 -------------------------------------------------------------------
 Cartesian Forces:  Max     0.180178787 RMS     0.084433908

 GradGradGradGradGradGradGradGradGradGradGradGradGradGradGradGradGradGrad
 Berny optimization.
 FormGI is forming the generalized inverse of G from B-inverse, IUseBI=4.
 Internal  Forces:  Max     0.214715362 RMS     0.105557883
 Search for a local minimum.
 Step number   1 out of a maximum of  100
 All quantities printed in internal units (Hartrees-Bohrs-Radians)
 Mixed Optimization -- RFO/linear search
 Second derivative matrix not updated -- first step.
 The second derivative matrix:
                          R1        R2        R3        R4        A1
           R1           0.33804
           R2           0.00000   0.49361
           R3           0.00000   0.00000   0.49498
           R4           0.00000   0.00000   0.00000   0.56943
           A1           0.00000   0.00000   0.00000   0.00000   0.16000
           A2           0.00000   0.00000   0.00000   0.00000   0.00000
           A3           0.00000   0.00000   0.00000   0.00000   0.00000
           D1           0.00000   0.00000   0.00000   0.00000   0.00000
           D2           0.00000   0.00000   0.00000   0.00000   0.00000
                          A2        A3        D1        D2
           A2           0.16000
           A3           0.00000   0.25000
           D1           0.00000   0.00000   0.00230
           D2           0.00000   0.00000   0.00000   0.01151
 ITU=  0
     Eigenvalues ---    0.00230   0.01151   0.16000   0.16000   0.25000
     Eigenvalues ---    0.33804   0.49361   0.49498   0.56943
 RFO step:  Lambda=-1.57057546D-01 EMin= 2.30000000D-03
 Linear search not attempted -- first point.
 Maximum step size (   0.300) exceeded in Quadratic search.
    -- Step size scaled by   0.592
 Iteration  1 RMS(Cart)=  0.15941282 RMS(Int)=  0.00639253
 Iteration  2 RMS(Cart)=  0.01228887 RMS(Int)=  0.00010408
 Iteration  3 RMS(Cart)=  0.00007660 RMS(Int)=  0.00000002
 Iteration  4 RMS(Cart)=  0.00000001 RMS(Int)=  0.00000000
 Variable       Old X    -DE/DX   Delta X   Delta X   Delta X     New X
                                 (Linear)    (Quad)   (Total)
    R1        2.80963  -0.07424   0.00000  -0.08875  -0.08875   2.72088
    R2        1.87215   0.21472   0.00000   0.19532   0.19532   2.06747
    R3        1.87075  -0.00748   0.00000  -0.00679  -0.00679   1.86396
    R4        1.80145   0.20685   0.00000   0.16853   0.16853   1.96998
    A1        1.75481   0.04363   0.00000   0.08145   0.08145   1.83625
    A2        1.62007   0.02202   0.00000   0.04111   0.04111   1.66118
    A3        2.78389   0.05835   0.00000   0.08485   0.08485   2.86874
    D1        0.11007   0.00361   0.00000   0.01340   0.01340   0.12347
    D2       -0.33920   0.00431   0.00000   0.01515   0.01515  -0.32405
         Item               Value     Threshold  Converged?
 Maximum Force            0.214715     0.002500     NO 
 RMS     Force            0.105558     0.001667     NO 
 Maximum Displacement     0.273387     0.010000     NO 
 RMS     Displacement     0.168073     0.006667     NO 
 Predicted change in Energy=-7.254883D-02
 GradGradGradGradGradGradGradGradGradGradGradGradGradGradGradGradGradGrad

                          Input orientation:                          
 ---------------------------------------------------------------------
 Center     Atomic      Atomic             Coordinates (Angstroms)
 Number     Number       Type             X           Y           Z
 ---------------------------------------------------------------------
      1          8           0        1.416478   11.365465   -0.480548
      2          8           0        0.276337   10.486174   -0.485567
      3          1           0        1.328562   11.944191    0.443741
      4          1           0       -0.149675   10.888249    0.308013
      5          8           0        0.975889   12.407030    1.308691
 ---------------------------------------------------------------------
                    Distance matrix (angstroms):
                    1          2          3          4          5
     1  O    0.000000
     2  O    1.439827   0.000000
     3  H    1.094059   2.024007   0.000000
     4  H    1.817251   0.986366   1.821708   0.000000
     5  O    2.116685   2.720004   1.042467   2.138913   0.000000
 Stoichiometry    H2O3
 Framework group  C1[X(H2O3)]
 Deg. of freedom     9
 Full point group                 C1      NOp   1
 Largest Abelian subgroup         C1      NOp   1
 Largest concise Abelian subgroup C1      NOp   1
                         Standard orientation:                         
 ---------------------------------------------------------------------
 Center     Atomic      Atomic             Coordinates (Angstroms)
 Number     Number       Type             X           Y           Z
 ---------------------------------------------------------------------
      1          8           0        0.361363    0.743515   -0.007875
      2          8           0        1.189350   -0.434294    0.009567
      3          1           0       -0.666708    0.372381    0.040022
      4          1           0        0.439673   -1.071218   -0.062749
      5          8           0       -1.522333   -0.221867    0.001149
 ---------------------------------------------------------------------
 Rotational constants (GHZ):          36.2782489           8.0935397           6.6185579
 Standard basis: 6-311+G(2df,2p) (5D, 7F)
 There are   135 symmetry adapted cartesian basis functions of A   symmetry.
 There are   120 symmetry adapted basis functions of A   symmetry.
   120 basis functions,   178 primitive gaussians,   135 cartesian basis functions
    13 alpha electrons       13 beta electrons
       nuclear repulsion energy        70.8864637570 Hartrees.
 NAtoms=    5 NActive=    5 NUniq=    5 SFac= 1.00D+00 NAtFMM=   60 NAOKFM=F Big=F
 Integral buffers will be    131072 words long.
 Raffenetti 2 integral format.
 Two-electron integral symmetry is turned on.
 One-electron integrals computed using PRISM.
 NBasis=   120 RedAO= T EigKep=  6.83D-04  NBF=   120
 NBsUse=   120 1.00D-06 EigRej= -1.00D+00 NBFU=   120
 Initial guess from the checkpoint file:  "/scratch/dinius.ab/QMscratch/Gau-8886.chk"
 B after Tr=    -0.000000    0.000000   -0.000000
         Rot=    0.999899    0.000509    0.000297    0.014173 Ang=   1.63 deg.
 ExpMin= 8.45D-02 ExpMax= 8.59D+03 ExpMxC= 1.30D+03 IAcc=2 IRadAn=         4 AccDes= 0.00D+00
 Harris functional with IExCor= 1009 and IRadAn=       4 diagonalized for initial guess.
 HarFok:  IExCor= 1009 AccDes= 0.00D+00 IRadAn=         4 IDoV= 1 UseB2=F ITyADJ=14
 ICtDFT=  3500011 ScaDFX=  1.000000  1.000000  1.000000  1.000000
 FoFCou: FMM=F IPFlag=           0 FMFlag=      100000 FMFlg1=           0
         NFxFlg=           0 DoJE=T BraDBF=F KetDBF=T FulRan=T
         wScrn=  0.000000 ICntrl=       500 IOpCl=  0 I1Cent=   200000004 NGrid=           0
         NMat0=    1 NMatS0=      1 NMatT0=    0 NMatD0=    1 NMtDS0=    0 NMtDT0=    0
 Petite list used in FoFCou.
 Keep R1 ints in memory in canonical form, NReq=28335731.
 Requested convergence on RMS density matrix=1.00D-08 within 128 cycles.
 Requested convergence on MAX density matrix=1.00D-06.
 Requested convergence on             energy=1.00D-06.
 No special actions if energy rises.
 SCF Done:  E(RM062X) =  -226.494088108     A.U. after   36 cycles
            NFock= 36  Conv=0.69D-08     -V/T= 2.0022
 Calling FoFJK, ICntrl=      2127 FMM=F ISym2X=0 I1Cent= 0 IOpClX= 0 NMat=1 NMatS=1 NMatT=0.
 ***** Axes restored to original set *****
 -------------------------------------------------------------------
 Center     Atomic                   Forces (Hartrees/Bohr)
 Number     Number              X              Y              Z
 -------------------------------------------------------------------
      1        8          -0.031099966   -0.083282787   -0.057044678
      2        8           0.053477235    0.049536803    0.015546401
      3        1          -0.005247616    0.023920602   -0.005900909
      4        1          -0.009194525   -0.008047648   -0.010243950
      5        8          -0.007935128    0.017873030    0.057643137
 -------------------------------------------------------------------
 Cartesian Forces:  Max     0.083282787 RMS     0.037688782

 GradGradGradGradGradGradGradGradGradGradGradGradGradGradGradGradGradGrad
 Berny optimization.
 Using GEDIIS/GDIIS optimizer.
 FormGI is forming the generalized inverse of G from B-inverse, IUseBI=4.
 Internal  Forces:  Max     0.066840552 RMS     0.037534866
 Search for a local minimum.
 Step number   2 out of a maximum of  100
 All quantities printed in internal units (Hartrees-Bohrs-Radians)
 Mixed Optimization -- RFO/linear search
 Update second derivatives using D2CorX and points    1    2
 DE= -5.91D-02 DEPred=-7.25D-02 R= 8.15D-01
 TightC=F SS=  1.41D+00  RLast= 3.01D-01 DXNew= 5.0454D-01 9.0202D-01
 Trust test= 8.15D-01 RLast= 3.01D-01 DXMaxT set to 5.05D-01
 The second derivative matrix:
                          R1        R2        R3        R4        A1
           R1           0.31910
           R2           0.03759   0.62139
           R3          -0.00248   0.00802   0.49470
           R4           0.03713   0.13016   0.00799   0.70197
           A1           0.00069   0.06423   0.00110   0.06473   0.18123
           A2           0.00531  -0.02064   0.00054  -0.02059  -0.00346
           A3           0.00659   0.04609   0.00177   0.04668   0.01894
           D1           0.00148  -0.01567  -0.00000  -0.01573  -0.00418
           D2           0.00084  -0.00805   0.00001  -0.00808  -0.00210
                          A2        A3        D1        D2
           A2           0.15901
           A3          -0.00480   0.26501
           D1           0.00022  -0.00424   0.00298
           D2           0.00008  -0.00216   0.00034   0.01168
 ITU=  1  0
 Use linear search instead of GDIIS.
     Eigenvalues ---    0.00229   0.01149   0.15709   0.16675   0.25752
     Eigenvalues ---    0.31423   0.49435   0.52659   0.82677
 RFO step:  Lambda=-4.39580565D-02 EMin= 2.29113777D-03
 Quartic linear search produced a step of  1.07844.
 Iteration  1 RMS(Cart)=  0.18952717 RMS(Int)=  0.12724943
 Iteration  2 RMS(Cart)=  0.10332094 RMS(Int)=  0.03737256
 Iteration  3 RMS(Cart)=  0.03876238 RMS(Int)=  0.00191594
 Iteration  4 RMS(Cart)=  0.00165231 RMS(Int)=  0.00000317
 Iteration  5 RMS(Cart)=  0.00000305 RMS(Int)=  0.00000000
 Iteration  6 RMS(Cart)=  0.00000000 RMS(Int)=  0.00000000
 Variable       Old X    -DE/DX   Delta X   Delta X   Delta X     New X
                                 (Linear)    (Quad)   (Total)
    R1        2.72088  -0.06040  -0.09571  -0.22525  -0.32096   2.39991
    R2        2.06747   0.06684   0.21064   0.01129   0.22193   2.28940
    R3        1.86396  -0.00752  -0.00732  -0.02011  -0.02743   1.83653
    R4        1.96998   0.05842   0.18175  -0.02177   0.15997   2.12995
    A1        1.83625   0.00411   0.08783  -0.01645   0.07138   1.90763
    A2        1.66118   0.02415   0.04434   0.21348   0.25782   1.91900
    A3        2.86874   0.01834   0.09150   0.04518   0.13669   3.00542
    D1        0.12347   0.01010   0.01446   0.47746   0.49191   0.61539
    D2       -0.32405   0.00749   0.01634   0.30125   0.31758  -0.00647
         Item               Value     Threshold  Converged?
 Maximum Force            0.066841     0.002500     NO 
 RMS     Force            0.037535     0.001667     NO 
 Maximum Displacement     0.427421     0.010000     NO 
 RMS     Displacement     0.316430     0.006667     NO 
 Predicted change in Energy=-1.352609D-02
 GradGradGradGradGradGradGradGradGradGradGradGradGradGradGradGradGradGrad

                          Input orientation:                          
 ---------------------------------------------------------------------
 Center     Atomic      Atomic             Coordinates (Angstroms)
 Number     Number       Type             X           Y           Z
 ---------------------------------------------------------------------
      1          8           0        1.294019   11.334480   -0.522791
      2          8           0        0.413664   10.426057   -0.410576
      3          1           0        1.299830   12.012625    0.481107
      4          1           0       -0.352317   10.765615    0.081831
      5          8           0        1.192394   12.552334    1.464759
 ---------------------------------------------------------------------
                    Distance matrix (angstroms):
                    1          2          3          4          5
     1  O    0.000000
     2  O    1.269980   0.000000
     3  H    1.211497   2.024249   0.000000
     4  H    1.843800   0.971850   2.108090   0.000000
     5  O    2.333206   2.940128   1.127120   2.736966   0.000000
 Stoichiometry    H2O3
 Framework group  C1[X(H2O3)]
 Deg. of freedom     9
 Full point group                 C1      NOp   1
 Largest Abelian subgroup         C1      NOp   1
 Largest concise Abelian subgroup C1      NOp   1
                         Standard orientation:                         
 ---------------------------------------------------------------------
 Center     Atomic      Atomic             Coordinates (Angstroms)
 Number     Number       Type             X           Y           Z
 ---------------------------------------------------------------------
      1          8           0        0.473392    0.647240   -0.038170
      2          8           0        1.221286   -0.373336    0.071056
      3          1           0       -0.686436    0.297889   -0.016335
      4          1           0        0.819515   -1.129579   -0.388474
      5          8           0       -1.711313   -0.169943    0.017715
 ---------------------------------------------------------------------
 Rotational constants (GHZ):          45.9803240           6.6765540           5.8622562
 Standard basis: 6-311+G(2df,2p) (5D, 7F)
 There are   135 symmetry adapted cartesian basis functions of A   symmetry.
 There are   120 symmetry adapted basis functions of A   symmetry.
   120 basis functions,   178 primitive gaussians,   135 cartesian basis functions
    13 alpha electrons       13 beta electrons
       nuclear repulsion energy        70.4935176738 Hartrees.
 NAtoms=    5 NActive=    5 NUniq=    5 SFac= 1.00D+00 NAtFMM=   60 NAOKFM=F Big=F
 Integral buffers will be    131072 words long.
 Raffenetti 2 integral format.
 Two-electron integral symmetry is turned on.
 One-electron integrals computed using PRISM.
 NBasis=   120 RedAO= T EigKep=  5.97D-04  NBF=   120
 NBsUse=   120 1.00D-06 EigRej= -1.00D+00 NBFU=   120
 Initial guess from the checkpoint file:  "/scratch/dinius.ab/QMscratch/Gau-8886.chk"
 B after Tr=     0.000000   -0.000000    0.000000
         Rot=    0.999918    0.008025    0.003195    0.009466 Ang=   1.47 deg.
 ExpMin= 8.45D-02 ExpMax= 8.59D+03 ExpMxC= 1.30D+03 IAcc=2 IRadAn=         4 AccDes= 0.00D+00
 Harris functional with IExCor= 1009 and IRadAn=       4 diagonalized for initial guess.
 HarFok:  IExCor= 1009 AccDes= 0.00D+00 IRadAn=         4 IDoV= 1 UseB2=F ITyADJ=14
 ICtDFT=  3500011 ScaDFX=  1.000000  1.000000  1.000000  1.000000
 FoFCou: FMM=F IPFlag=           0 FMFlag=      100000 FMFlg1=           0
         NFxFlg=           0 DoJE=T BraDBF=F KetDBF=T FulRan=T
         wScrn=  0.000000 ICntrl=       500 IOpCl=  0 I1Cent=   200000004 NGrid=           0
         NMat0=    1 NMatS0=      1 NMatT0=    0 NMatD0=    1 NMtDS0=    0 NMtDT0=    0
 Petite list used in FoFCou.
 Keep R1 ints in memory in canonical form, NReq=28335319.
 Requested convergence on RMS density matrix=1.00D-08 within 128 cycles.
 Requested convergence on MAX density matrix=1.00D-06.
 Requested convergence on             energy=1.00D-06.
 No special actions if energy rises.
 SCF Done:  E(RM062X) =  -226.516358873     A.U. after   23 cycles
            NFock= 23  Conv=0.98D-08     -V/T= 2.0023
 Calling FoFJK, ICntrl=      2127 FMM=F ISym2X=0 I1Cent= 0 IOpClX= 0 NMat=1 NMatS=1 NMatT=0.
 ***** Axes restored to original set *****
 -------------------------------------------------------------------
 Center     Atomic                   Forces (Hartrees/Bohr)
 Number     Number              X              Y              Z
 -------------------------------------------------------------------
      1        8           0.030458880    0.029650395    0.003008638
      2        8          -0.022973226   -0.044513271    0.003632450
      3        1          -0.013198401    0.029945122    0.014901868
      4        1          -0.003666943    0.009629804   -0.000835319
      5        8           0.009379690   -0.024712050   -0.020707637
 -------------------------------------------------------------------
 Cartesian Forces:  Max     0.044513271 RMS     0.021394170

 GradGradGradGradGradGradGradGradGradGradGradGradGradGradGradGradGradGrad
 Berny optimization.
 Using GEDIIS/GDIIS optimizer.
 FormGI is forming the generalized inverse of G from B-inverse, IUseBI=4.
 Internal  Forces:  Max     0.043642358 RMS     0.018866820
 Search for a local minimum.
 Step number   3 out of a maximum of  100
 All quantities printed in internal units (Hartrees-Bohrs-Radians)
 Mixed Optimization -- RFO/linear search
 Update second derivatives using D2CorX and points    2    3
 DE= -2.23D-02 DEPred=-1.35D-02 R= 1.65D+00
 TightC=F SS=  1.41D+00  RLast= 7.82D-01 DXNew= 8.4853D-01 2.3463D+00
 Trust test= 1.65D+00 RLast= 7.82D-01 DXMaxT set to 8.49D-01
 The second derivative matrix:
                          R1        R2        R3        R4        A1
           R1           0.38046
           R2           0.07494   0.46640
           R3           0.00700   0.01026   0.49610
           R4           0.03153   0.01948   0.00499   0.63774
           A1           0.02654   0.01380   0.00378   0.02243   0.16749
           A2          -0.01598  -0.03472  -0.00277  -0.01932  -0.01285
           A3           0.01798  -0.00658   0.00234   0.00967   0.00155
           D1          -0.00477  -0.00629  -0.00070  -0.00720  -0.00190
           D2          -0.00408  -0.00489  -0.00063  -0.00392  -0.00188
                          A2        A3        D1        D2
           A2           0.16640
           A3          -0.00913   0.24713
           D1           0.00247  -0.00097   0.00264
           D2           0.00183  -0.00101   0.00038   0.01186
 ITU=  1  1  0
 Use linear search instead of GDIIS.
     Eigenvalues ---    0.00241   0.01174   0.15223   0.17179   0.24418
     Eigenvalues ---    0.34085   0.48877   0.51332   0.65092
 RFO step:  Lambda=-1.12563688D-02 EMin= 2.41485834D-03
 Quartic linear search produced a step of -0.21490.
 Iteration  1 RMS(Cart)=  0.07460039 RMS(Int)=  0.16390976
 Iteration  2 RMS(Cart)=  0.07958179 RMS(Int)=  0.09700920
 Iteration  3 RMS(Cart)=  0.08216064 RMS(Int)=  0.03093165
 Iteration  4 RMS(Cart)=  0.03953356 RMS(Int)=  0.00159128
 Iteration  5 RMS(Cart)=  0.00111474 RMS(Int)=  0.00000083
 Iteration  6 RMS(Cart)=  0.00000088 RMS(Int)=  0.00000000
 Variable       Old X    -DE/DX   Delta X   Delta X   Delta X     New X
                                 (Linear)    (Quad)   (Total)
    R1        2.39991   0.04364   0.06898   0.05882   0.12779   2.52771
    R2        2.28940  -0.00194  -0.04769   0.02952  -0.01817   2.27123
    R3        1.83653   0.00594   0.00590   0.00583   0.01173   1.84826
    R4        2.12995  -0.03082  -0.03438  -0.01194  -0.04631   2.08363
    A1        1.90763  -0.00124  -0.01534  -0.00061  -0.01595   1.89169
    A2        1.91900  -0.01279  -0.05541  -0.02794  -0.08335   1.83565
    A3        3.00542  -0.00665  -0.02937  -0.00398  -0.03335   2.97207
    D1        0.61539   0.00931  -0.10571   0.78065   0.67493   1.29032
    D2       -0.00647   0.00373  -0.06825   0.22847   0.16022   0.15375
         Item               Value     Threshold  Converged?
 Maximum Force            0.043642     0.002500     NO 
 RMS     Force            0.018867     0.001667     NO 
 Maximum Displacement     0.446758     0.010000     NO 
 RMS     Displacement     0.246782     0.006667     NO 
 Predicted change in Energy=-1.056478D-02
 GradGradGradGradGradGradGradGradGradGradGradGradGradGradGradGradGradGrad

                          Input orientation:                          
 ---------------------------------------------------------------------
 Center     Atomic      Atomic             Coordinates (Angstroms)
 Number     Number       Type             X           Y           Z
 ---------------------------------------------------------------------
      1          8           0        1.206752   11.422676   -0.507769
      2          8           0        0.454801   10.352210   -0.228736
      3          1           0        1.313968   12.081572    0.491672
      4          1           0       -0.458813   10.693393   -0.154583
      5          8           0        1.330882   12.541260    1.493746
 ---------------------------------------------------------------------
                    Distance matrix (angstroms):
                    1          2          3          4          5
     1  O    0.000000
     2  O    1.337605   0.000000
     3  H    1.201882   2.061031   0.000000
     4  H    1.852215   0.978057   2.342528   0.000000
     5  O    2.296236   2.920000   1.102611   3.055259   0.000000
 Stoichiometry    H2O3
 Framework group  C1[X(H2O3)]
 Deg. of freedom     9
 Full point group                 C1      NOp   1
 Largest Abelian subgroup         C1      NOp   1
 Largest concise Abelian subgroup C1      NOp   1
                         Standard orientation:                         
 ---------------------------------------------------------------------
 Center     Atomic      Atomic             Coordinates (Angstroms)
 Number     Number       Type             X           Y           Z
 ---------------------------------------------------------------------
      1          8           0        0.423696    0.671719   -0.039968
      2          8           0        1.214677   -0.394736    0.121933
      3          1           0       -0.719182    0.299768   -0.038394
      4          1           0        1.190404   -0.864075   -0.735812
      5          8           0       -1.697276   -0.206445    0.014810
 ---------------------------------------------------------------------
 Rotational constants (GHZ):          42.1281279           6.7133178           5.8922451
 Standard basis: 6-311+G(2df,2p) (5D, 7F)
 There are   135 symmetry adapted cartesian basis functions of A   symmetry.
 There are   120 symmetry adapted basis functions of A   symmetry.
   120 basis functions,   178 primitive gaussians,   135 cartesian basis functions
    13 alpha electrons       13 beta electrons
       nuclear repulsion energy        69.3081675659 Hartrees.
 NAtoms=    5 NActive=    5 NUniq=    5 SFac= 1.00D+00 NAtFMM=   60 NAOKFM=F Big=F
 Integral buffers will be    131072 words long.
 Raffenetti 2 integral format.
 Two-electron integral symmetry is turned on.
 One-electron integrals computed using PRISM.
 NBasis=   120 RedAO= T EigKep=  8.37D-04  NBF=   120
 NBsUse=   120 1.00D-06 EigRej= -1.00D+00 NBFU=   120
 Initial guess from the checkpoint file:  "/scratch/dinius.ab/QMscratch/Gau-8886.chk"
 B after Tr=    -0.000000    0.000000   -0.000000
         Rot=    0.999487   -0.028066    0.005075   -0.014566 Ang=  -3.67 deg.
 ExpMin= 8.45D-02 ExpMax= 8.59D+03 ExpMxC= 1.30D+03 IAcc=2 IRadAn=         4 AccDes= 0.00D+00
 Harris functional with IExCor= 1009 and IRadAn=       4 diagonalized for initial guess.
 HarFok:  IExCor= 1009 AccDes= 0.00D+00 IRadAn=         4 IDoV= 1 UseB2=F ITyADJ=14
 ICtDFT=  3500011 ScaDFX=  1.000000  1.000000  1.000000  1.000000
 FoFCou: FMM=F IPFlag=           0 FMFlag=      100000 FMFlg1=           0
         NFxFlg=           0 DoJE=T BraDBF=F KetDBF=T FulRan=T
         wScrn=  0.000000 ICntrl=       500 IOpCl=  0 I1Cent=   200000004 NGrid=           0
         NMat0=    1 NMatS0=      1 NMatT0=    0 NMatD0=    1 NMtDS0=    0 NMtDT0=    0
 Petite list used in FoFCou.
 Keep R1 ints in memory in canonical form, NReq=28335235.
 Requested convergence on RMS density matrix=1.00D-08 within 128 cycles.
 Requested convergence on MAX density matrix=1.00D-06.
 Requested convergence on             energy=1.00D-06.
 No special actions if energy rises.
 SCF Done:  E(RM062X) =  -226.523162334     A.U. after   25 cycles
            NFock= 25  Conv=0.53D-08     -V/T= 2.0029
 Calling FoFJK, ICntrl=      2127 FMM=F ISym2X=0 I1Cent= 0 IOpClX= 0 NMat=1 NMatS=1 NMatT=0.
 ***** Axes restored to original set *****
 -------------------------------------------------------------------
 Center     Atomic                   Forces (Hartrees/Bohr)
 Number     Number              X              Y              Z
 -------------------------------------------------------------------
      1        8           0.000178534   -0.018568039    0.021396797
      2        8           0.001159591    0.011848054   -0.007339573
      3        1          -0.015794919    0.022843682   -0.008936616
      4        1           0.006162222   -0.001066058    0.000523373
      5        8           0.008294573   -0.015057639   -0.005643981
 -------------------------------------------------------------------
 Cartesian Forces:  Max     0.022843682 RMS     0.012155010

 GradGradGradGradGradGradGradGradGradGradGradGradGradGradGradGradGradGrad
 Berny optimization.
 Using GEDIIS/GDIIS optimizer.
 FormGI is forming the generalized inverse of G from B-inverse, IUseBI=4.
 Internal  Forces:  Max     0.014276299 RMS     0.008993039
 Search for a local minimum.
 Step number   4 out of a maximum of  100
 All quantities printed in internal units (Hartrees-Bohrs-Radians)
 Mixed Optimization -- RFO/linear search
 Update second derivatives using D2CorX and points    3    4
 DE= -6.80D-03 DEPred=-1.06D-02 R= 6.44D-01
 TightC=F SS=  1.41D+00  RLast= 7.13D-01 DXNew= 1.4270D+00 2.1392D+00
 Trust test= 6.44D-01 RLast= 7.13D-01 DXMaxT set to 1.43D+00
 The second derivative matrix:
                          R1        R2        R3        R4        A1
           R1           0.39302
           R2           0.10586   0.46863
           R3           0.02269   0.01609   0.50114
           R4           0.09908   0.00595   0.00955   0.56340
           A1          -0.00336   0.00966  -0.00274   0.03068   0.17335
           A2          -0.00022  -0.04127  -0.00321  -0.04492  -0.00774
           A3           0.07059  -0.00504   0.01125  -0.01885  -0.00337
           D1           0.02750  -0.00157   0.00643  -0.01550  -0.00846
           D2          -0.01460  -0.00482  -0.00224   0.00271  -0.00125
                          A2        A3        D1        D2
           A2           0.15834
           A3          -0.02166   0.24583
           D1          -0.00290   0.00476   0.00997
           D2           0.00457  -0.00009  -0.00038   0.01154
 ITU=  1  1  1  0
 Use linear search instead of GDIIS.
     Eigenvalues ---    0.00594   0.01091   0.13440   0.16917   0.21680
     Eigenvalues ---    0.34331   0.48617   0.51774   0.64080
 RFO step:  Lambda=-3.45024225D-03 EMin= 5.94460409D-03
 Quartic linear search produced a step of -0.08475.
 Iteration  1 RMS(Cart)=  0.07793821 RMS(Int)=  0.05362984
 Iteration  2 RMS(Cart)=  0.01554373 RMS(Int)=  0.00090821
 Iteration  3 RMS(Cart)=  0.00108590 RMS(Int)=  0.00000126
 Iteration  4 RMS(Cart)=  0.00000130 RMS(Int)=  0.00000000
 Iteration  5 RMS(Cart)=  0.00000000 RMS(Int)=  0.00000000
 Variable       Old X    -DE/DX   Delta X   Delta X   Delta X     New X
                                 (Linear)    (Quad)   (Total)
    R1        2.52771  -0.01428  -0.01083   0.02719   0.01636   2.54407
    R2        2.27123  -0.00848   0.00154  -0.02563  -0.02409   2.24714
    R3        1.84826  -0.00603  -0.00099  -0.00503  -0.00602   1.84224
    R4        2.08363  -0.01125   0.00393  -0.04135  -0.03742   2.04621
    A1        1.89169   0.00873   0.00135   0.04595   0.04730   1.93899
    A2        1.83565  -0.00198   0.00706  -0.05413  -0.04706   1.78859
    A3        2.97207  -0.01363   0.00283  -0.06479  -0.06197   2.91011
    D1        1.29032  -0.00192  -0.05720  -0.13458  -0.19178   1.09854
    D2        0.15375   0.00442  -0.01358   0.33086   0.31728   0.47104
         Item               Value     Threshold  Converged?
 Maximum Force            0.014276     0.002500     NO 
 RMS     Force            0.008993     0.001667     NO 
 Maximum Displacement     0.106241     0.010000     NO 
 RMS     Displacement     0.070447     0.006667     NO 
 Predicted change in Energy=-2.014805D-03
 GradGradGradGradGradGradGradGradGradGradGradGradGradGradGradGradGradGrad

                          Input orientation:                          
 ---------------------------------------------------------------------
 Center     Atomic      Atomic             Coordinates (Angstroms)
 Number     Number       Type             X           Y           Z
 ---------------------------------------------------------------------
      1          8           0        1.229249   11.407068   -0.490118
      2          8           0        0.447125   10.333932   -0.268562
      3          1           0        1.291408   12.098087    0.475633
      4          1           0       -0.423094   10.739049   -0.098362
      5          8           0        1.302902   12.512974    1.475738
 ---------------------------------------------------------------------
                    Distance matrix (angstroms):
                    1          2          3          4          5
     1  O    0.000000
     2  O    1.346263   0.000000
     3  H    1.189136   2.092578   0.000000
     4  H    1.824817   0.974869   2.261852   0.000000
     5  O    2.256777   2.919445   1.082808   2.933200   0.000000
 Stoichiometry    H2O3
 Framework group  C1[X(H2O3)]
 Deg. of freedom     9
 Full point group                 C1      NOp   1
 Largest Abelian subgroup         C1      NOp   1
 Largest concise Abelian subgroup C1      NOp   1
                         Standard orientation:                         
 ---------------------------------------------------------------------
 Center     Atomic      Atomic             Coordinates (Angstroms)
 Number     Number       Type             X           Y           Z
 ---------------------------------------------------------------------
      1          8           0        0.400708    0.664731   -0.040199
      2          8           0        1.234391   -0.380932    0.114678
      3          1           0       -0.732519    0.306509   -0.079156
      4          1           0        1.080605   -0.895266   -0.699066
      5          8           0       -1.678610   -0.210204    0.022799
 ---------------------------------------------------------------------
 Rotational constants (GHZ):          43.2183438           6.7889629           5.9625191
 Standard basis: 6-311+G(2df,2p) (5D, 7F)
 There are   135 symmetry adapted cartesian basis functions of A   symmetry.
 There are   120 symmetry adapted basis functions of A   symmetry.
   120 basis functions,   178 primitive gaussians,   135 cartesian basis functions
    13 alpha electrons       13 beta electrons
       nuclear repulsion energy        69.5966106762 Hartrees.
 NAtoms=    5 NActive=    5 NUniq=    5 SFac= 1.00D+00 NAtFMM=   60 NAOKFM=F Big=F
 Integral buffers will be    131072 words long.
 Raffenetti 2 integral format.
 Two-electron integral symmetry is turned on.
 One-electron integrals computed using PRISM.
 NBasis=   120 RedAO= T EigKep=  8.55D-04  NBF=   120
 NBsUse=   120 1.00D-06 EigRej= -1.00D+00 NBFU=   120
 Initial guess from the checkpoint file:  "/scratch/dinius.ab/QMscratch/Gau-8886.chk"
 B after Tr=     0.000000   -0.000000    0.000000
         Rot=    0.999977    0.005536   -0.002808   -0.002790 Ang=   0.78 deg.
 ExpMin= 8.45D-02 ExpMax= 8.59D+03 ExpMxC= 1.30D+03 IAcc=2 IRadAn=         4 AccDes= 0.00D+00
 Harris functional with IExCor= 1009 and IRadAn=       4 diagonalized for initial guess.
 HarFok:  IExCor= 1009 AccDes= 0.00D+00 IRadAn=         4 IDoV= 1 UseB2=F ITyADJ=14
 ICtDFT=  3500011 ScaDFX=  1.000000  1.000000  1.000000  1.000000
 FoFCou: FMM=F IPFlag=           0 FMFlag=      100000 FMFlg1=           0
         NFxFlg=           0 DoJE=T BraDBF=F KetDBF=T FulRan=T
         wScrn=  0.000000 ICntrl=       500 IOpCl=  0 I1Cent=   200000004 NGrid=           0
         NMat0=    1 NMatS0=      1 NMatT0=    0 NMatD0=    1 NMtDS0=    0 NMtDT0=    0
 Petite list used in FoFCou.
 Keep R1 ints in memory in canonical form, NReq=28335306.
 Requested convergence on RMS density matrix=1.00D-08 within 128 cycles.
 Requested convergence on MAX density matrix=1.00D-06.
 Requested convergence on             energy=1.00D-06.
 No special actions if energy rises.
 SCF Done:  E(RM062X) =  -226.526340267     A.U. after   19 cycles
            NFock= 19  Conv=0.37D-08     -V/T= 2.0028
 Calling FoFJK, ICntrl=      2127 FMM=F ISym2X=0 I1Cent= 0 IOpClX= 0 NMat=1 NMatS=1 NMatT=0.
 ***** Axes restored to original set *****
 -------------------------------------------------------------------
 Center     Atomic                   Forces (Hartrees/Bohr)
 Number     Number              X              Y              Z
 -------------------------------------------------------------------
      1        8          -0.000324008   -0.026417992    0.014390621
      2        8           0.006126048    0.021505780   -0.003776758
      3        1          -0.013393879    0.025738509   -0.007962436
      4        1          -0.000189336   -0.005529054   -0.000677713
      5        8           0.007781175   -0.015297242   -0.001973713
 -------------------------------------------------------------------
 Cartesian Forces:  Max     0.026417992 RMS     0.013302072

 GradGradGradGradGradGradGradGradGradGradGradGradGradGradGradGradGradGrad
 Berny optimization.
 Using GEDIIS/GDIIS optimizer.
 FormGI is forming the generalized inverse of G from B-inverse, IUseBI=4.
 Internal  Forces:  Max     0.024280078 RMS     0.010978285
 Search for a local minimum.
 Step number   5 out of a maximum of  100
 All quantities printed in internal units (Hartrees-Bohrs-Radians)
 Mixed Optimization -- RFO/linear search
 Update second derivatives using D2CorX and points    4    5
 DE= -3.18D-03 DEPred=-2.01D-03 R= 1.58D+00
 TightC=F SS=  1.41D+00  RLast= 3.85D-01 DXNew= 2.4000D+00 1.1542D+00
 Trust test= 1.58D+00 RLast= 3.85D-01 DXMaxT set to 1.43D+00
 The second derivative matrix:
                          R1        R2        R3        R4        A1
           R1           0.33308
           R2           0.04930   0.48541
           R3          -0.01577   0.02337   0.50353
           R4           0.03689  -0.00087   0.00186   0.53722
           A1           0.04641   0.01106   0.00089   0.04864   0.16162
           A2          -0.03951   0.02513   0.03586  -0.00918  -0.04232
           A3           0.03714  -0.10923  -0.05533  -0.10726   0.07157
           D1           0.00997   0.01765   0.01740  -0.00725  -0.01713
           D2          -0.00032   0.00634   0.00549   0.01582  -0.01161
                          A2        A3        D1        D2
           A2           0.28523
           A3          -0.15073   0.30237
           D1           0.03837  -0.04206   0.02308
           D2           0.01052   0.01026   0.00262   0.00822
 ITU=  1  1  1  1  0
 Use linear search instead of GDIIS.
     Eigenvalues ---    0.00142   0.01394   0.09238   0.15484   0.27273
     Eigenvalues ---    0.43040   0.48501   0.54813   0.64092
 RFO step:  Lambda=-8.53410284D-03 EMin= 1.42441552D-03
 Quartic linear search produced a step of  0.89968.
 Iteration  1 RMS(Cart)=  0.09556203 RMS(Int)=  0.19170525
 Iteration  2 RMS(Cart)=  0.03406214 RMS(Int)=  0.13019750
 Iteration  3 RMS(Cart)=  0.03890046 RMS(Int)=  0.06360131
 Iteration  4 RMS(Cart)=  0.03804588 RMS(Int)=  0.00284785
 Iteration  5 RMS(Cart)=  0.00263163 RMS(Int)=  0.00000969
 Iteration  6 RMS(Cart)=  0.00001053 RMS(Int)=  0.00000000
 Iteration  7 RMS(Cart)=  0.00000000 RMS(Int)=  0.00000000
 Variable       Old X    -DE/DX   Delta X   Delta X   Delta X     New X
                                 (Linear)    (Quad)   (Total)
    R1        2.54407  -0.01699   0.01472  -0.05287  -0.03815   2.50592
    R2        2.24714  -0.00223  -0.02167  -0.04094  -0.06261   2.18453
    R3        1.84224  -0.00229  -0.00542  -0.02420  -0.02962   1.81262
    R4        2.04621  -0.00754  -0.03367  -0.06822  -0.10189   1.94432
    A1        1.93899   0.00526   0.04255   0.15860   0.20116   2.14014
    A2        1.78859   0.00925  -0.04234  -0.04363  -0.08597   1.70262
    A3        2.91011  -0.02428  -0.05575  -0.19970  -0.25545   2.65466
    D1        1.09854   0.00179  -0.17254   0.10633  -0.06621   1.03233
    D2        0.47104   0.00478   0.28545   0.41982   0.70527   1.17631
         Item               Value     Threshold  Converged?
 Maximum Force            0.024280     0.002500     NO 
 RMS     Force            0.010978     0.001667     NO 
 Maximum Displacement     0.261911     0.010000     NO 
 RMS     Displacement     0.163508     0.006667     NO 
 Predicted change in Energy=-8.861378D-03
 GradGradGradGradGradGradGradGradGradGradGradGradGradGradGradGradGradGrad

                          Input orientation:                          
 ---------------------------------------------------------------------
 Center     Atomic      Atomic             Coordinates (Angstroms)
 Number     Number       Type             X           Y           Z
 ---------------------------------------------------------------------
      1          8           0        1.184755   11.388671   -0.351520
      2          8           0        0.441995   10.292556   -0.278643
      3          1           0        1.202044   12.186487    0.484865
      4          1           0       -0.411174   10.723498   -0.198359
      5          8           0        1.429970   12.499898    1.437987
 ---------------------------------------------------------------------
                    Distance matrix (angstroms):
                    1          2          3          4          5
     1  O    0.000000
     2  O    1.326074   0.000000
     3  H    1.156005   2.178898   0.000000
     4  H    1.735771   0.959195   2.282455   0.000000
     5  O    2.120682   2.965683   1.028892   3.036945   0.000000
 Stoichiometry    H2O3
 Framework group  C1[X(H2O3)]
 Deg. of freedom     9
 Full point group                 C1      NOp   1
 Largest Abelian subgroup         C1      NOp   1
 Largest concise Abelian subgroup C1      NOp   1
                         Standard orientation:                         
 ---------------------------------------------------------------------
 Center     Atomic      Atomic             Coordinates (Angstroms)
 Number     Number       Type             X           Y           Z
 ---------------------------------------------------------------------
      1          8           0        0.308196    0.568680   -0.029518
      2          8           0        1.299431   -0.299589    0.118922
      3          1           0       -0.780315    0.241685   -0.240629
      4          1           0        1.228397   -0.720118   -0.740243
      5          8           0       -1.663637   -0.209287    0.033205
 ---------------------------------------------------------------------
 Rotational constants (GHZ):          58.0134502           6.6709048           6.0996722
 Standard basis: 6-311+G(2df,2p) (5D, 7F)
 There are   135 symmetry adapted cartesian basis functions of A   symmetry.
 There are   120 symmetry adapted basis functions of A   symmetry.
   120 basis functions,   178 primitive gaussians,   135 cartesian basis functions
    13 alpha electrons       13 beta electrons
       nuclear repulsion energy        71.1271514894 Hartrees.
 NAtoms=    5 NActive=    5 NUniq=    5 SFac= 1.00D+00 NAtFMM=   60 NAOKFM=F Big=F
 Integral buffers will be    131072 words long.
 Raffenetti 2 integral format.
 Two-electron integral symmetry is turned on.
 One-electron integrals computed using PRISM.
 NBasis=   120 RedAO= T EigKep=  7.82D-04  NBF=   120
 NBsUse=   120 1.00D-06 EigRej= -1.00D+00 NBFU=   120
 Initial guess from the checkpoint file:  "/scratch/dinius.ab/QMscratch/Gau-8886.chk"
 B after Tr=    -0.000000    0.000000   -0.000000
         Rot=    0.999829   -0.002239    0.000231   -0.018359 Ang=  -2.12 deg.
 ExpMin= 8.45D-02 ExpMax= 8.59D+03 ExpMxC= 1.30D+03 IAcc=2 IRadAn=         4 AccDes= 0.00D+00
 Harris functional with IExCor= 1009 and IRadAn=       4 diagonalized for initial guess.
 HarFok:  IExCor= 1009 AccDes= 0.00D+00 IRadAn=         4 IDoV= 1 UseB2=F ITyADJ=14
 ICtDFT=  3500011 ScaDFX=  1.000000  1.000000  1.000000  1.000000
 FoFCou: FMM=F IPFlag=           0 FMFlag=      100000 FMFlg1=           0
         NFxFlg=           0 DoJE=T BraDBF=F KetDBF=T FulRan=T
         wScrn=  0.000000 ICntrl=       500 IOpCl=  0 I1Cent=   200000004 NGrid=           0
         NMat0=    1 NMatS0=      1 NMatT0=    0 NMatD0=    1 NMtDS0=    0 NMtDT0=    0
 Petite list used in FoFCou.
 Keep R1 ints in memory in canonical form, NReq=28335306.
 Requested convergence on RMS density matrix=1.00D-08 within 128 cycles.
 Requested convergence on MAX density matrix=1.00D-06.
 Requested convergence on             energy=1.00D-06.
 No special actions if energy rises.
 SCF Done:  E(RM062X) =  -226.533391026     A.U. after   18 cycles
            NFock= 18  Conv=0.56D-08     -V/T= 2.0021
 Calling FoFJK, ICntrl=      2127 FMM=F ISym2X=0 I1Cent= 0 IOpClX= 0 NMat=1 NMatS=1 NMatT=0.
 ***** Axes restored to original set *****
 -------------------------------------------------------------------
 Center     Atomic                   Forces (Hartrees/Bohr)
 Number     Number              X              Y              Z
 -------------------------------------------------------------------
      1        8           0.030738684   -0.024728962   -0.015895181
      2        8           0.001619861    0.017054467    0.007537619
      3        1          -0.020382605    0.037825924   -0.003081074
      4        1          -0.020299642   -0.012520156    0.001257976
      5        8           0.008323702   -0.017631273    0.010180660
 -------------------------------------------------------------------
 Cartesian Forces:  Max     0.037825924 RMS     0.018383485

 GradGradGradGradGradGradGradGradGradGradGradGradGradGradGradGradGradGrad
 Berny optimization.
 Using GEDIIS/GDIIS optimizer.
 FormGI is forming the generalized inverse of G from B-inverse, IUseBI=4.
 Internal  Forces:  Max     0.040871032 RMS     0.021183232
 Search for a local minimum.
 Step number   6 out of a maximum of  100
 All quantities printed in internal units (Hartrees-Bohrs-Radians)
 Mixed Optimization -- RFO/linear search
 Update second derivatives using D2CorX and points    5    6
 DE= -7.05D-03 DEPred=-8.86D-03 R= 7.96D-01
 TightC=F SS=  1.41D+00  RLast= 7.95D-01 DXNew= 2.4000D+00 2.3841D+00
 Trust test= 7.96D-01 RLast= 7.95D-01 DXMaxT set to 2.38D+00
 The second derivative matrix:
                          R1        R2        R3        R4        A1
           R1           0.32862
           R2           0.08919   0.52443
           R3           0.00863   0.04995   0.52147
           R4           0.04353   0.02204   0.01644   0.54445
           A1           0.00483  -0.03405  -0.02956   0.02383   0.21333
           A2           0.05442   0.08054   0.07589   0.03719  -0.11014
           A3          -0.07198  -0.14722  -0.08552  -0.15564   0.12257
           D1           0.01848   0.01710   0.01758  -0.00421  -0.01741
           D2          -0.02119  -0.00560  -0.00317   0.00559   0.00307
                          A2        A3        D1        D2
           A2           0.33321
           A3          -0.14677   0.23020
           D1           0.03010  -0.02741   0.02127
           D2           0.00070   0.00844   0.00452   0.01021
 ITU=  1  1  1  1  1  0
 Use linear search instead of GDIIS.
     Eigenvalues ---    0.00436   0.01936   0.04308   0.15593   0.29380
     Eigenvalues ---    0.36144   0.48636   0.54226   0.82060
 RFO step:  Lambda=-1.02725003D-02 EMin= 4.35600315D-03
 Quartic linear search produced a step of -0.00152.
 Iteration  1 RMS(Cart)=  0.07158359 RMS(Int)=  0.02902828
 Iteration  2 RMS(Cart)=  0.03204803 RMS(Int)=  0.00156487
 Iteration  3 RMS(Cart)=  0.00136405 RMS(Int)=  0.00000231
 Iteration  4 RMS(Cart)=  0.00000187 RMS(Int)=  0.00000000
 Iteration  5 RMS(Cart)=  0.00000000 RMS(Int)=  0.00000000
 Variable       Old X    -DE/DX   Delta X   Delta X   Delta X     New X
                                 (Linear)    (Quad)   (Total)
    R1        2.50592   0.00730   0.00006  -0.01218  -0.01213   2.49379
    R2        2.18453   0.01898   0.00010  -0.03032  -0.03022   2.15431
    R3        1.81262   0.01231   0.00005  -0.01197  -0.01193   1.80069
    R4        1.94432   0.00588   0.00016  -0.07426  -0.07410   1.87022
    A1        2.14014  -0.01952  -0.00031   0.07519   0.07488   2.21503
    A2        1.70262   0.03721   0.00013   0.05136   0.05149   1.75411
    A3        2.65466  -0.04087   0.00039  -0.27858  -0.27819   2.37646
    D1        1.03233   0.00096   0.00010  -0.21150  -0.21140   0.82093
    D2        1.17631  -0.00121  -0.00107   0.08827   0.08720   1.26351
         Item               Value     Threshold  Converged?
 Maximum Force            0.040871     0.002500     NO 
 RMS     Force            0.021183     0.001667     NO 
 Maximum Displacement     0.165166     0.010000     NO 
 RMS     Displacement     0.097741     0.006667     NO 
 Predicted change in Energy=-5.877973D-03
 GradGradGradGradGradGradGradGradGradGradGradGradGradGradGradGradGradGrad

                          Input orientation:                          
 ---------------------------------------------------------------------
 Center     Atomic      Atomic             Coordinates (Angstroms)
 Number     Number       Type             X           Y           Z
 ---------------------------------------------------------------------
      1          8           0        1.218399   11.383204   -0.282848
      2          8           0        0.443981   10.314671   -0.280004
      3          1           0        1.178240   12.259827    0.444852
      4          1           0       -0.412171   10.720913   -0.180216
      5          8           0        1.419141   12.412496    1.392546
 ---------------------------------------------------------------------
                    Distance matrix (angstroms):
                    1          2          3          4          5
     1  O    0.000000
     2  O    1.319657   0.000000
     3  H    1.140012   2.201859   0.000000
     4  H    1.762929   0.952883   2.299646   0.000000
     5  O    1.976533   2.854685   0.989679   2.947666   0.000000
 Stoichiometry    H2O3
 Framework group  C1[X(H2O3)]
 Deg. of freedom     9
 Full point group                 C1      NOp   1
 Largest Abelian subgroup         C1      NOp   1
 Largest concise Abelian subgroup C1      NOp   1
                         Standard orientation:                         
 ---------------------------------------------------------------------
 Center     Atomic      Atomic             Coordinates (Angstroms)
 Number     Number       Type             X           Y           Z
 ---------------------------------------------------------------------
      1          8           0        0.245508    0.545575   -0.026685
      2          8           0        1.277857   -0.264188    0.114868
      3          1           0       -0.808052    0.260644   -0.356005
      4          1           0        1.225878   -0.755913   -0.699681
      5          8           0       -1.575593   -0.219479    0.043778
 ---------------------------------------------------------------------
 Rotational constants (GHZ):          62.2838100           7.2403740           6.6250778
 Standard basis: 6-311+G(2df,2p) (5D, 7F)
 There are   135 symmetry adapted cartesian basis functions of A   symmetry.
 There are   120 symmetry adapted basis functions of A   symmetry.
   120 basis functions,   178 primitive gaussians,   135 cartesian basis functions
    13 alpha electrons       13 beta electrons
       nuclear repulsion energy        73.0863485516 Hartrees.
 NAtoms=    5 NActive=    5 NUniq=    5 SFac= 1.00D+00 NAtFMM=   60 NAOKFM=F Big=F
 Integral buffers will be    131072 words long.
 Raffenetti 2 integral format.
 Two-electron integral symmetry is turned on.
 One-electron integrals computed using PRISM.
 NBasis=   120 RedAO= T EigKep=  7.28D-04  NBF=   120
 NBsUse=   120 1.00D-06 EigRej= -1.00D+00 NBFU=   120
 Initial guess from the checkpoint file:  "/scratch/dinius.ab/QMscratch/Gau-8886.chk"
 B after Tr=     0.000000   -0.000000    0.000000
         Rot=    0.999890    0.011464   -0.000825   -0.009415 Ang=   1.70 deg.
 ExpMin= 8.45D-02 ExpMax= 8.59D+03 ExpMxC= 1.30D+03 IAcc=2 IRadAn=         4 AccDes= 0.00D+00
 Harris functional with IExCor= 1009 and IRadAn=       4 diagonalized for initial guess.
 HarFok:  IExCor= 1009 AccDes= 0.00D+00 IRadAn=         4 IDoV= 1 UseB2=F ITyADJ=14
 ICtDFT=  3500011 ScaDFX=  1.000000  1.000000  1.000000  1.000000
 FoFCou: FMM=F IPFlag=           0 FMFlag=      100000 FMFlg1=           0
         NFxFlg=           0 DoJE=T BraDBF=F KetDBF=T FulRan=T
         wScrn=  0.000000 ICntrl=       500 IOpCl=  0 I1Cent=   200000004 NGrid=           0
         NMat0=    1 NMatS0=      1 NMatT0=    0 NMatD0=    1 NMtDS0=    0 NMtDT0=    0
 Petite list used in FoFCou.
 Keep R1 ints in memory in canonical form, NReq=28335574.
 Requested convergence on RMS density matrix=1.00D-08 within 128 cycles.
 Requested convergence on MAX density matrix=1.00D-06.
 Requested convergence on             energy=1.00D-06.
 No special actions if energy rises.
 SCF Done:  E(RM062X) =  -226.543570848     A.U. after   16 cycles
            NFock= 16  Conv=0.42D-08     -V/T= 2.0017
 Calling FoFJK, ICntrl=      2127 FMM=F ISym2X=0 I1Cent= 0 IOpClX= 0 NMat=1 NMatS=1 NMatT=0.
 ***** Axes restored to original set *****
 -------------------------------------------------------------------
 Center     Atomic                   Forces (Hartrees/Bohr)
 Number     Number              X              Y              Z
 -------------------------------------------------------------------
      1        8           0.034788329   -0.033639604   -0.023107391
      2        8           0.005348054    0.003208804    0.011962612
      3        1          -0.028119571    0.059756678   -0.012329915
      4        1          -0.023634368   -0.004329938   -0.000286972
      5        8           0.011617556   -0.024995940    0.023761665
 -------------------------------------------------------------------
 Cartesian Forces:  Max     0.059756678 RMS     0.025130589

 GradGradGradGradGradGradGradGradGradGradGradGradGradGradGradGradGradGrad
 Berny optimization.
 Using GEDIIS/GDIIS optimizer.
 FormGI is forming the generalized inverse of G from B-inverse, IUseBI=4.
 Internal  Forces:  Max     0.054375812 RMS     0.026892776
 Search for a local minimum.
 Step number   7 out of a maximum of  100
 All quantities printed in internal units (Hartrees-Bohrs-Radians)
 Mixed Optimization -- RFO/linear search
 Update second derivatives using D2CorX and points    6    7
 DE= -1.02D-02 DEPred=-5.88D-03 R= 1.73D+00
 TightC=F SS=  1.41D+00  RLast= 3.80D-01 DXNew= 4.0095D+00 1.1409D+00
 Trust test= 1.73D+00 RLast= 3.80D-01 DXMaxT set to 2.38D+00
 The second derivative matrix:
                          R1        R2        R3        R4        A1
           R1          -0.06507
           R2          -1.32272  -4.54540
           R3          -0.62815  -2.23341  -0.50854
           R4          -1.37674  -5.08865  -2.27982  -4.62627
           A1           0.64116   2.24100   1.00009   2.30013  -0.82312
           A2           1.08000   3.80619   1.73197   3.86763  -1.71410
           A3           1.16442   4.27448   1.91506   4.27056  -1.88994
           D1          -0.23122  -0.87974  -0.38622  -0.90869   0.38467
           D2           0.19285   0.76366   0.34293   0.78227  -0.34102
                          A2        A3        D1        D2
           A2          -2.70151
           A3          -3.27245  -3.67776
           D1           0.69080   0.75410  -0.13739
           D2          -0.56944  -0.66046   0.14063  -0.10659
 ITU=  1  1  1  1  1  1  0
 Use linear search instead of GDIIS.
     Eigenvalues ---  -19.02699   0.00000   0.00850   0.02704   0.19999
     Eigenvalues ---    0.25507   0.33321   0.48867   0.52287
 RFO step:  Lambda=-1.90271556D+01 EMin=-1.90269947D+01
 I=     1 Eig=   -1.90D+01 Dot1=  3.32D-02
 I=     1 Stepn=  6.00D-01 RXN=   6.00D-01 EDone=F
 Mixed    1 eigenvectors in step.  Raw Step.Grad=  3.32D-02.
 RFO eigenvector is Hessian eigenvector with negative curvature.
 Taking step of  6.00D-01 in eigenvector direction(s).  Step.Grad=  2.13D-03.
 Skip linear search -- no minimum in search direction.
 Iteration  1 RMS(Cart)=  0.15224103 RMS(Int)=  0.05922319
 Iteration  2 RMS(Cart)=  0.05659561 RMS(Int)=  0.00279165
 Iteration  3 RMS(Cart)=  0.00277730 RMS(Int)=  0.00000485
 Iteration  4 RMS(Cart)=  0.00000484 RMS(Int)=  0.00000000
 Iteration  5 RMS(Cart)=  0.00000000 RMS(Int)=  0.00000000
 Variable       Old X    -DE/DX   Delta X   Delta X   Delta X     New X
                                 (Linear)    (Quad)   (Total)
    R1        2.49379   0.01165   0.00000   0.08326   0.08326   2.57705
    R2        2.15431   0.03463   0.00000   0.30294   0.30294   2.45726
    R3        1.80069   0.01934   0.00000   0.13579   0.13579   1.93647
    R4        1.87022   0.02174   0.00000   0.30599   0.30599   2.17621
    A1        2.21503  -0.02647   0.00000  -0.13794  -0.13794   2.07709
    A2        1.75411   0.02536   0.00000  -0.23451  -0.23451   1.51960
    A3        2.37646  -0.05438   0.00000  -0.26447  -0.26447   2.11199
    D1        0.82093   0.00373   0.00000   0.05492   0.05492   0.87585
    D2        1.26351  -0.00359   0.00000  -0.04737  -0.04737   1.21614
         Item               Value     Threshold  Converged?
 Maximum Force            0.054376     0.002500     NO 
 RMS     Force            0.026893     0.001667     NO 
 Maximum Displacement     0.238228     0.010000     NO 
 RMS     Displacement     0.193648     0.006667     NO 
 Predicted change in Energy=-3.458057D+00
 GradGradGradGradGradGradGradGradGradGradGradGradGradGradGradGradGradGrad

                          Input orientation:                          
 ---------------------------------------------------------------------
 Center     Atomic      Atomic             Coordinates (Angstroms)
 Number     Number       Type             X           Y           Z
 ---------------------------------------------------------------------
      1          8           0        1.227721   11.337431   -0.404267
      2          8           0        0.468822   10.224096   -0.193835
      3          1           0        1.076622   12.361546    0.382626
      4          1           0       -0.344573   10.846978   -0.171602
      5          8           0        1.418998   12.321059    1.481408
 ---------------------------------------------------------------------
                    Distance matrix (angstroms):
                    1          2          3          4          5
     1  O    0.000000
     2  O    1.363717   0.000000
     3  H    1.300323   2.295739   0.000000
     4  H    1.663365   1.024737   2.149623   0.000000
     5  O    2.135388   2.847197   1.151600   2.831173   0.000000
 Stoichiometry    H2O3
 Framework group  C1[X(H2O3)]
 Deg. of freedom     9
 Full point group                 C1      NOp   1
 Largest Abelian subgroup         C1      NOp   1
 Largest concise Abelian subgroup C1      NOp   1
                         Standard orientation:                         
 ---------------------------------------------------------------------
 Center     Atomic      Atomic             Coordinates (Angstroms)
 Number     Number       Type             X           Y           Z
 ---------------------------------------------------------------------
      1          8           0        0.342269    0.639393    0.023301
      2          8           0        1.236388   -0.387086    0.104636
      3          1           0       -0.827575    0.416758   -0.498944
      4          1           0        1.047013   -0.560974   -0.887325
      5          8           0       -1.606087   -0.234280    0.045346
 ---------------------------------------------------------------------
 Rotational constants (GHZ):          43.9063931           7.1577709           6.3412665
 Standard basis: 6-311+G(2df,2p) (5D, 7F)
 There are   135 symmetry adapted cartesian basis functions of A   symmetry.
 There are   120 symmetry adapted basis functions of A   symmetry.
   120 basis functions,   178 primitive gaussians,   135 cartesian basis functions
    13 alpha electrons       13 beta electrons
       nuclear repulsion energy        69.7831977271 Hartrees.
 NAtoms=    5 NActive=    5 NUniq=    5 SFac= 1.00D+00 NAtFMM=   60 NAOKFM=F Big=F
 Integral buffers will be    131072 words long.
 Raffenetti 2 integral format.
 Two-electron integral symmetry is turned on.
 One-electron integrals computed using PRISM.
 NBasis=   120 RedAO= T EigKep=  1.06D-03  NBF=   120
 NBsUse=   120 1.00D-06 EigRej= -1.00D+00 NBFU=   120
 Initial guess from the checkpoint file:  "/scratch/dinius.ab/QMscratch/Gau-8886.chk"
 B after Tr=     0.000000   -0.000000    0.000000
         Rot=    0.997958   -0.061135   -0.002715    0.018307 Ang=  -7.32 deg.
 ExpMin= 8.45D-02 ExpMax= 8.59D+03 ExpMxC= 1.30D+03 IAcc=2 IRadAn=         4 AccDes= 0.00D+00
 Harris functional with IExCor= 1009 and IRadAn=       4 diagonalized for initial guess.
 HarFok:  IExCor= 1009 AccDes= 0.00D+00 IRadAn=         4 IDoV= 1 UseB2=F ITyADJ=14
 ICtDFT=  3500011 ScaDFX=  1.000000  1.000000  1.000000  1.000000
 FoFCou: FMM=F IPFlag=           0 FMFlag=      100000 FMFlg1=           0
         NFxFlg=           0 DoJE=T BraDBF=F KetDBF=T FulRan=T
         wScrn=  0.000000 ICntrl=       500 IOpCl=  0 I1Cent=   200000004 NGrid=           0
         NMat0=    1 NMatS0=      1 NMatT0=    0 NMatD0=    1 NMtDS0=    0 NMtDT0=    0
 Petite list used in FoFCou.
 Keep R1 ints in memory in canonical form, NReq=28335450.
 Requested convergence on RMS density matrix=1.00D-08 within 128 cycles.
 Requested convergence on MAX density matrix=1.00D-06.
 Requested convergence on             energy=1.00D-06.
 No special actions if energy rises.
 SCF Done:  E(RM062X) =  -226.533446694     A.U. after   18 cycles
            NFock= 18  Conv=0.75D-08     -V/T= 2.0040
 Calling FoFJK, ICntrl=      2127 FMM=F ISym2X=0 I1Cent= 0 IOpClX= 0 NMat=1 NMatS=1 NMatT=0.
 ***** Axes restored to original set *****
 -------------------------------------------------------------------
 Center     Atomic                   Forces (Hartrees/Bohr)
 Number     Number              X              Y              Z
 -------------------------------------------------------------------
      1        8           0.038349031   -0.002926554    0.028708137
      2        8          -0.039346541    0.076042023   -0.000748187
      3        1           0.007590417    0.007324949    0.051066564
      4        1           0.009127215   -0.059914979    0.003943646
      5        8          -0.015720122   -0.020525439   -0.082970161
 -------------------------------------------------------------------
 Cartesian Forces:  Max     0.082970161 RMS     0.039660778

 GradGradGradGradGradGradGradGradGradGradGradGradGradGradGradGradGradGrad
 Berny optimization.
 Using GEDIIS/GDIIS optimizer.
 FormGI is forming the generalized inverse of G from B-inverse, IUseBI=4.
 Internal  Forces:  Max     0.083192804 RMS     0.046576666
 Search for a local minimum.
 Step number   8 out of a maximum of  100
 All quantities printed in internal units (Hartrees-Bohrs-Radians)
 Mixed Optimization -- RFO/linear search
 Update second derivatives using D2CorX and points    6    8    7
 The second derivative matrix:
                          R1        R2        R3        R4        A1
           R1           0.30202
           R2           0.01649   0.35774
           R3          -0.02457  -0.00711   0.51774
           R4          -0.02015  -0.10240   0.00245   0.46607
           A1           0.03232   0.01653  -0.00562   0.04307   0.18730
           A2           0.04259   0.00438   0.00234  -0.00265   0.00976
           A3           0.00068   0.04053   0.01768  -0.00549   0.03796
           D1           0.01054   0.00026   0.00857  -0.01943  -0.01591
           D2          -0.01619   0.00015  -0.00202   0.00786   0.00586
                          A2        A3        D1        D2
           A2           0.24709
           A3           0.00493   0.01909
           D1           0.00952  -0.01357   0.02203
           D2           0.02219   0.00166   0.00306   0.01250
 ITU=  0  1  1  1  1  1  1  0
 Use linear search instead of GDIIS.
     Eigenvalues ---    0.00000   0.00831   0.02505   0.17347   0.22734
     Eigenvalues ---    0.30518   0.33628   0.51858   0.53735
 RFO step:  Lambda=-5.06412708D-02 EMin= 3.43364645D-06
 Quartic linear search produced a step of -0.65725.
 Iteration  1 RMS(Cart)=  0.15532845 RMS(Int)=  0.16046558
 Iteration  2 RMS(Cart)=  0.12395453 RMS(Int)=  0.08099069
 Iteration  3 RMS(Cart)=  0.10189551 RMS(Int)=  0.01543546
 Iteration  4 RMS(Cart)=  0.02244983 RMS(Int)=  0.00038356
 Iteration  5 RMS(Cart)=  0.00031296 RMS(Int)=  0.00000005
 Iteration  6 RMS(Cart)=  0.00000009 RMS(Int)=  0.00000000
 Variable       Old X    -DE/DX   Delta X   Delta X   Delta X     New X
                                 (Linear)    (Quad)   (Total)
    R1        2.57705   0.00429  -0.05472  -0.00637  -0.06110   2.51595
    R2        2.45726  -0.02880  -0.19911   0.08727  -0.11184   2.34541
    R3        1.93647  -0.04363  -0.08925   0.02016  -0.06908   1.86739
    R4        2.17621  -0.08319  -0.20111  -0.03868  -0.23979   1.93642
    A1        2.07709  -0.00727   0.09066   0.04688   0.13754   2.21463
    A2        1.51960   0.08210   0.15413   0.18531   0.33944   1.85904
    A3        2.11199  -0.05517   0.17383  -0.83540  -0.66158   1.45041
    D1        0.87585   0.00294  -0.03610  -0.14720  -0.18330   0.69255
    D2        1.21614   0.00246   0.03114  -0.04628  -0.01514   1.20099
         Item               Value     Threshold  Converged?
 Maximum Force            0.083193     0.002500     NO 
 RMS     Force            0.046577     0.001667     NO 
 Maximum Displacement     0.575333     0.010000     NO 
 RMS     Displacement     0.364192     0.006667     NO 
 Predicted change in Energy=-5.011810D-02
 GradGradGradGradGradGradGradGradGradGradGradGradGradGradGradGradGradGrad

                          Input orientation:                          
 ---------------------------------------------------------------------
 Center     Atomic      Atomic             Coordinates (Angstroms)
 Number     Number       Type             X           Y           Z
[...]
 Mulliken charges with hydrogens summed into heavy atoms:
               1
     1  O   -0.015920
     2  O    0.009197
     5  O    0.006723
 APT charges:
               1
     1  O    0.174981
     2  O   -0.331772
     3  H    0.245181
     4  H    0.244936
     5  O   -0.333326
 Sum of APT charges =  -0.00000
 APT charges with hydrogens summed into heavy atoms:
               1
     1  O    0.174981
     2  O   -0.086836
     5  O   -0.088145
 Electronic spatial extent (au):  <R**2>=            141.1174
 Charge=             -0.0000 electrons
 Dipole moment (field-independent basis, Debye):
    X=             -0.0218    Y=             -1.1738    Z=             -3.0530  Tot=              3.2709
 Quadrupole moment (field-independent basis, Debye-Ang):
   XX=            -15.6696   YY=            -17.5357   ZZ=            -15.1370
   XY=             -0.0341   XZ=              0.0308   YZ=              1.9223
 Traceless Quadrupole moment (field-independent basis, Debye-Ang):
   XX=              0.4445   YY=             -1.4216   ZZ=              0.9771
   XY=             -0.0341   XZ=              0.0308   YZ=              1.9223
 Octapole moment (field-independent basis, Debye-Ang**2):
  XXX=             -0.1537  YYY=             -0.3132  ZZZ=             -2.8982  XYY=              0.0433
  XXY=             -3.2107  XXZ=             -6.8675  XZZ=             -0.0218  YZZ=             -1.3263
  YYZ=             -1.3109  XYZ=              0.0307
 Hexadecapole moment (field-independent basis, Debye-Ang**3):
 XXXX=           -103.4127 YYYY=            -30.0141 ZZZZ=            -15.6418 XXXY=             -0.0307
 XXXZ=              0.1616 YYYX=             -0.0511 YYYZ=              1.1853 ZZZX=              0.0359
 ZZZY=              2.0732 XXYY=            -20.8013 XXZZ=            -16.9221 YYZZ=             -7.5448
 XXYZ=              3.3500 YYXZ=             -0.0301 ZZXY=             -0.0196
 N-N= 8.018894271490D+01 E-N=-6.968228991970D+02  KE= 2.260911503599D+02
  Exact polarizability:  25.776  -0.006  16.225   0.010   0.798  15.428
 Approx polarizability:  27.571   0.000  18.888   0.021   0.817  17.829
 Calling FoFJK, ICntrl=    100127 FMM=F ISym2X=0 I1Cent= 0 IOpClX= 0 NMat=1 NMatS=1 NMatT=0.
 Full mass-weighted force constant matrix:
 Low frequencies ---    0.0010    0.0013    0.0016   36.5202   89.6071  133.6394
 Low frequencies ---  381.8623  524.4143  573.2362
 Diagonal vibrational polarizability:
       13.9336147      12.8613714       0.4572360
 Harmonic frequencies (cm**-1), IR intensities (KM/Mole), Raman scattering
 activities (A**4/AMU), depolarization ratios for plane and unpolarized
 incident light, reduced masses (AMU), force constants (mDyne/A),
 and normal coordinates:
                      1                      2                      3
                      A                      A                      A
 Frequencies --    381.3035               520.0222               572.9417
 Red. masses --      1.1146                 1.1826                 9.3520
 Frc consts  --      0.0955                 0.1884                 1.8087
 IR Inten    --     67.5087                94.1224                23.8058
  Atom  AN      X      Y      Z        X      Y      Z        X      Y      Z
     1   8    -0.01  -0.01  -0.02     0.01  -0.06  -0.06     0.01   0.27  -0.13
     2   8    -0.02  -0.06   0.00     0.04   0.01   0.03    -0.45  -0.15   0.06
     3   1     0.23  -0.40   0.09    -0.57   0.67  -0.04    -0.19   0.56   0.01
     4   1     0.51   0.71  -0.11     0.34   0.32   0.01     0.02   0.31   0.03
     5   8    -0.02   0.05   0.02    -0.03  -0.02   0.03     0.45  -0.18   0.06
                      4                      5                      6
                      A                      A                      A
 Frequencies --    977.6039              1028.4086              1428.6921
 Red. masses --     13.7841                15.4243                 1.0910
 Frc consts  --      7.7617                 9.6114                 1.3120
 IR Inten    --     78.6169                 0.8850                49.6269
  Atom  AN      X      Y      Z        X      Y      Z        X      Y      Z
     1   8     0.69  -0.00   0.00     0.00   0.68  -0.15    -0.04   0.00   0.00
     2   8    -0.36   0.23  -0.08     0.35  -0.33   0.08    -0.02   0.00  -0.04
     3   1     0.22  -0.17  -0.09    -0.04  -0.13  -0.06     0.54   0.34  -0.20
     4   1     0.19   0.13   0.08     0.02  -0.10  -0.07     0.59  -0.38   0.22
     5   8    -0.36  -0.23   0.08    -0.35  -0.33   0.08    -0.01  -0.00   0.04
                      7                      8                      9
                      A                      A                      A
 Frequencies --   1461.8559              3825.4611              3835.3805
 Red. masses --      1.1243                 1.0685                 1.0685
 Frc consts  --      1.4156                 9.2132                 9.2611
 IR Inten    --     32.9966                38.7505                33.4829
  Atom  AN      X      Y      Z        X      Y      Z        X      Y      Z
     1   8    -0.00  -0.04  -0.05    -0.00   0.00   0.00     0.00   0.00   0.00
     2   8     0.02  -0.00   0.04     0.01  -0.02  -0.06    -0.00   0.00   0.01
     3   1     0.59   0.39  -0.22     0.03   0.03   0.10     0.23   0.27   0.93
     4   1    -0.53   0.35  -0.20    -0.22   0.29   0.92     0.02  -0.03  -0.10
     5   8    -0.02  -0.01   0.04    -0.00  -0.00  -0.01    -0.01  -0.02  -0.06

 -------------------
 - Thermochemistry -
 -------------------
 Temperature   298.150 Kelvin.  Pressure   1.00000 Atm.
 Atom     1 has atomic number  8 and mass  15.99491
 Atom     2 has atomic number  8 and mass  15.99491
 Atom     3 has atomic number  1 and mass   1.00783
 Atom     4 has atomic number  1 and mass   1.00783
 Atom     5 has atomic number  8 and mass  15.99491
 Molecular mass:    50.00039 amu.
 Principal axes and moments of inertia in atomic units:
                           1         2         3
     Eigenvalues --    32.81617 164.05770 185.18863
           X            1.00000  -0.00045   0.00019
           Y            0.00042   0.99079   0.13544
           Z           -0.00025  -0.13544   0.99079
 This molecule is an asymmetric top.
 Rotational symmetry number  1.
 Rotational temperatures (Kelvin)      2.63937     0.52795     0.46771
 Rotational constants (GHZ):          54.99548    11.00065     9.74542
 Zero-point vibrational energy      83928.0 (Joules/Mol)
                                   20.05928 (Kcal/Mol)
 Warning -- explicit consideration of   3 degrees of freedom as
           vibrations may cause significant error
 Vibrational temperatures:    548.61   748.20   824.34  1406.55  1479.65
          (Kelvin)           2055.57  2103.28  5503.99  5518.26
 
 Zero-point correction=                           0.031966 (Hartree/Particle)
 Thermal correction to Energy=                    0.035598
 Thermal correction to Enthalpy=                  0.036542
 Thermal correction to Gibbs Free Energy=         0.007304
 Sum of electronic and zero-point Energies=           -226.650486
 Sum of electronic and thermal Energies=              -226.646854
 Sum of electronic and thermal Enthalpies=            -226.645910
 Sum of electronic and thermal Free Energies=         -226.675149
 
                     E (Thermal)             CV                S
                      KCal/Mol        Cal/Mol-Kelvin    Cal/Mol-Kelvin
 Total                   22.338             10.698             61.537
 Electronic               0.000              0.000              0.000
 Translational            0.889              2.981             37.652
 Rotational               0.889              2.981             21.527
 Vibrational             20.560              4.736              2.358
 Vibration     1          0.751              1.510              1.034
 Vibration     2          0.875              1.206              0.610
 Vibration     3          0.929              1.090              0.499
                       Q            Log10(Q)             Ln(Q)
 Total Bot       0.437028D-03         -3.359491         -7.735514
 Total V=0       0.220832D+12         11.344063         26.120670
 Vib (Bot)       0.278227D-14        -14.555600        -33.515508
 Vib (Bot)    1  0.473744D+00         -0.324456         -0.747087
 Vib (Bot)    2  0.310391D+00         -0.508091         -1.169922
 Vib (Bot)    3  0.267842D+00         -0.572122         -1.317359
 Vib (V=0)       0.140590D+01          0.147954          0.340676
 Vib (V=0)    1  0.118879D+01          0.075106          0.172937
 Vib (V=0)    2  0.108851D+01          0.036832          0.084809
 Vib (V=0)    3  0.106722D+01          0.028254          0.065058
 Electronic      0.100000D+01          0.000000          0.000000
 Translational   0.138968D+08          7.142914         16.447167
 Rotational      0.113030D+05          4.053195          9.332826
 ***** Axes restored to original set *****
 -------------------------------------------------------------------
 Center     Atomic                   Forces (Hartrees/Bohr)
 Number     Number              X              Y              Z
 -------------------------------------------------------------------
      1        8          -0.000127442   -0.000114801    0.000109302
      2        8          -0.000131915    0.000335202   -0.000070194
      3        1           0.000009791   -0.000178253    0.000027538
      4        1           0.000216749   -0.000185936   -0.000010983
      5        8           0.000032817    0.000143789   -0.000055663
 -------------------------------------------------------------------
 Cartesian Forces:  Max     0.000335202 RMS     0.000144962
 FormGI is forming the generalized inverse of G from B-inverse, IUseBI=4.

 GradGradGradGradGradGradGradGradGradGradGradGradGradGradGradGradGradGrad
 Berny optimization.
 Internal  Forces:  Max     0.000249906 RMS     0.000139093
 Search for a local minimum.
 Step number   1 out of a maximum of    2
 All quantities printed in internal units (Hartrees-Bohrs-Radians)
 Second derivative matrix not updated -- analytic derivatives used.
 The second derivative matrix:
                          R1        R2        R3        R4        A1
           R1           0.32987
           R2           0.05708   0.27751
           R3           0.00307   0.00017   0.52437
           R4          -0.01870  -0.10582  -0.00018   0.59465
           A1           0.04149   0.03685  -0.00060  -0.01852   0.32325
           A2           0.06788   0.00239  -0.00881   0.00080   0.00576
           A3           0.10745   0.40866   0.00062  -0.04269   0.05137
           D1          -0.00428   0.00314  -0.00269   0.00493   0.01395
           D2           0.01505   0.02634   0.00031  -0.01156   0.16303
                          A2        A3        D1        D2
           A2           0.24004
           A3           0.00668   1.08700
           D1           0.00709   0.01552   0.01727
           D2           0.00049   0.04993   0.00332   0.11095
 ITU=  0
     Eigenvalues ---    0.01387   0.02408   0.09303   0.20041   0.33948
     Eigenvalues ---    0.41736   0.52466   0.59964   1.29237
 Angle between quadratic step and forces=  51.32 degrees.
 Linear search not attempted -- first point.
 Iteration  1 RMS(Cart)=  0.00626822 RMS(Int)=  0.00004904
 Iteration  2 RMS(Cart)=  0.00003914 RMS(Int)=  0.00000000
 Iteration  3 RMS(Cart)=  0.00000000 RMS(Int)=  0.00000000
 Variable       Old X    -DE/DX   Delta X   Delta X   Delta X     New X
                                 (Linear)    (Quad)   (Total)
    R1        2.63956  -0.00016   0.00000   0.00006   0.00006   2.63962
    R2        3.53538  -0.00007   0.00000  -0.00035  -0.00035   3.53502
    R3        1.82684  -0.00025   0.00000  -0.00042  -0.00042   1.82642
    R4        1.82679  -0.00010   0.00000  -0.00034  -0.00034   1.82645
    A1        1.88808  -0.00003   0.00000  -0.00499  -0.00499   1.88310
    A2        1.80043   0.00006   0.00000  -0.00009  -0.00009   1.80033
    A3        0.81426   0.00001   0.00000  -0.00023  -0.00023   0.81403
    D1        1.10198   0.00019   0.00000   0.01391   0.01391   1.11589
    D2        1.63520   0.00017   0.00000   0.00861   0.00861   1.64381
         Item               Value     Threshold  Converged?
 Maximum Force            0.000250     0.002500     YES
 RMS     Force            0.000139     0.001667     YES
 Maximum Displacement     0.008707     0.010000     YES
 RMS     Displacement     0.006263     0.006667     YES
 Predicted change in Energy=-2.231944D-06
 Optimization completed.
    -- Stationary point found.
                           ----------------------------
                           !   Optimized Parameters   !
                           ! (Angstroms and Degrees)  !
 --------------------------                            --------------------------
 ! Name  Definition              Value          Derivative Info.                !
 --------------------------------------------------------------------------------
 ! R1    R(1,2)                  1.3968         -DE/DX =   -0.0002              !
 ! R2    R(1,3)                  1.8708         -DE/DX =   -0.0001              !
 ! R3    R(2,4)                  0.9667         -DE/DX =   -0.0002              !
 ! R4    R(3,5)                  0.9667         -DE/DX =   -0.0001              !
 ! A1    A(2,1,3)              108.1792         -DE/DX =    0.0                 !
 ! A2    A(1,2,4)              103.1569         -DE/DX =    0.0001              !
 ! A3    A(1,3,5)               46.6536         -DE/DX =    0.0                 !
 ! D1    D(3,1,2,4)             63.139          -DE/DX =    0.0002              !
 ! D2    D(2,1,3,5)             93.69           -DE/DX =    0.0002              !
 --------------------------------------------------------------------------------
 GradGradGradGradGradGradGradGradGradGradGradGradGradGradGradGradGradGrad


 ----------------------------------------------------------------------

 Electric dipole moment (input orientation):
 (Debye = 10**-18 statcoulomb cm , SI units = C m)
                  (au)            (Debye)         (10**-30 SI)
   Tot        0.128688D+01      0.327092D+01      0.109106D+02
   x         -0.908184D+00     -0.230837D+01     -0.769991D+01
   y          0.817937D+00      0.207899D+01      0.693476D+01
   z         -0.402783D+00     -0.102377D+01     -0.341493D+01

 Dipole polarizability, Alpha (input orientation).
 (esu units = cm**3 , SI units = C**2 m**2 J**-1)
 Alpha(0;0):
               (au)            (10**-24 esu)      (10**-40 SI)
   iso        0.191432D+02      0.283673D+01      0.315629D+01
   aniso      0.100690D+02      0.149208D+01      0.166016D+01
   xx         0.191935D+02      0.284419D+01      0.316458D+01
   yx         0.369850D+01      0.548061D+00      0.609800D+00
   yy         0.217363D+02      0.322098D+01      0.358383D+01
   zx         0.163344D+01      0.242051D+00      0.269318D+00
   zy         0.325440D+01      0.482252D+00      0.536578D+00
   zz         0.164998D+02      0.244501D+01      0.272044D+01

 ----------------------------------------------------------------------

 Dipole orientation:
     8          9.10516515        -15.30527673         11.69045390
     8          6.94003188        -13.80711912         11.87751574
     1          8.62325891        -18.19259937         13.67287941
     1          6.89541625        -13.36007046         13.64824591
     8          8.34696514        -17.82500094         11.90491108

 Electric dipole moment (dipole orientation):
 (Debye = 10**-18 statcoulomb cm , SI units = C m)
                  (au)            (Debye)         (10**-30 SI)
   Tot        0.128688D+01      0.327092D+01      0.109106D+02
   x          0.000000D+00      0.000000D+00      0.000000D+00
   y          0.000000D+00      0.000000D+00      0.000000D+00
   z          0.128688D+01      0.327092D+01      0.109106D+02

 Dipole polarizability, Alpha (dipole orientation).
 (esu units = cm**3 , SI units = C**2 m**2 J**-1)
 Alpha(0;0):
               (au)            (10**-24 esu)      (10**-40 SI)
   iso        0.191432D+02      0.283673D+01      0.315629D+01
   aniso      0.100690D+02      0.149208D+01      0.166016D+01
   xx         0.167169D+02      0.247719D+01      0.275624D+01
   yx        -0.319781D+01     -0.473866D+00     -0.527247D+00
   yy         0.246470D+02      0.365231D+01      0.406374D+01
   zx        -0.787090D+00     -0.116635D+00     -0.129774D+00
   zy        -0.353024D+00     -0.523127D-01     -0.582057D-01
   zz         0.160656D+02      0.238068D+01      0.264887D+01

 ----------------------------------------------------------------------
 1\1\GINC-C0112\Freq\RM062X\6-311+G(2df,2p)\H2O3\DINIUS.AB\26-Oct-2018\
 0\\#N Geom=AllCheck Guess=TCheck SCRF=Check GenChk RM062X/6-311+G(2df,
 2p) Freq\\Title\\0,1\O,1.3916514356,11.1852954169,-0.1887944877\O,0.33
 9818461,10.3079298552,0.0849051628\H,1.0150047584,12.8227469063,0.6339
 641721\H,-0.4169417681,10.7316589353,-0.3420781609\O,1.518057113,12.04
 34788863,0.9063333136\\Version=EM64L-G16RevA.03\State=1-A\HF=-226.6824
 523\RMSD=5.954e-10\RMSF=1.450e-04\ZeroPoint=0.0319665\Thermal=0.035597
 8\Dipole=-0.9081843,0.8179375,-0.4027826\DipoleDeriv=0.1662604,0.31151
 98,0.0124995,0.2631634,0.3205821,0.2729898,0.1080144,0.2061827,0.03810
 01,-0.3784087,-0.3406509,-0.0644015,-0.0842489,-0.3354502,-0.1978462,0
 .0829677,-0.0707727,-0.2814582,0.2522293,0.0576122,-0.0697601,0.062293
 4,0.2579558,0.0012533,-0.0917607,-0.001403,0.2253569,0.2344896,0.02212
 63,-0.0215038,0.0315632,0.1859791,0.0622195,-0.0250399,0.0828448,0.314
 3405,-0.2745706,-0.0506074,0.143166,-0.2727711,-0.4290669,-0.1386164,-
 0.0741815,-0.2168518,-0.2963392\Polar=19.1935251,3.6984976,21.7362687,
 1.6334383,3.2543972,16.4997659\Quadrupole=0.7410898,0.7211558,-1.46224
 56,-0.6922962,0.8936086,0.1978357\PG=C01 [X(H2O3)]\NImag=0\\0.26067135
 ,0.10535975,0.24102517,-0.08872655,0.08994936,0.28974527,-0.18004737,-
 0.10917925,0.07006575,0.49190918,-0.06997457,-0.11064046,0.03992097,-0
 .05262023,0.30913999,0.04199461,0.03499586,-0.08343806,0.15171151,-0.1
 4355355,0.17826306,0.00499463,-0.00668442,0.00301316,-0.00060160,-0.00
 432349,0.00126760,0.15490615,0.00835348,-0.02102382,-0.00444387,-0.000
 25799,-0.00323000,0.00068241,-0.21058869,0.35567649,0.02263650,-0.0486
 7884,-0.00573835,-0.00046015,-0.00041606,-0.00072683,0.09103859,-0.094
 61290,0.09808562,-0.03501701,0.00084528,-0.00720038,-0.30750730,0.1504
 0256,-0.15876807,0.00011893,0.00024929,-0.00063008,0.34301868,-0.03925
 801,0.00723020,-0.01157278,0.19353692,-0.15359678,0.13072815,-0.000679
 46,-0.00064290,0.00004825,-0.15106921,0.14778421,0.02246592,-0.0029071
 2,0.00597343,-0.18625211,0.11887747,-0.11590357,-0.00130057,-0.0003089
 6,0.00090024,0.16706902,-0.11597762,0.11188677,-0.05060159,0.00965865,
 0.02284803,-0.00375291,-0.02348427,-0.03620565,-0.15941811,0.20224391,
 -0.11258487,-0.00061330,-0.00253024,-0.00198227,0.21438591,-0.00448064
 ,-0.11659110,-0.11385369,-0.03147944,-0.04167275,-0.02285288,0.2222760
 7,-0.33077977,0.14365955,-0.00042792,-0.00077473,0.00031623,-0.1858880
 6,0.48981835,0.00162952,-0.07335926,-0.20654230,-0.03506500,-0.0148288
 4,0.02180540,-0.09401878,0.09868332,-0.09252069,-0.00047049,-0.0032260
 1,-0.00285687,0.12792476,-0.00726921,0.28011446\\0.00012744,0.00011480
 ,-0.00010930,0.00013192,-0.00033520,0.00007019,-0.00000979,0.00017825,
 -0.00002754,-0.00021675,0.00018594,0.00001098,-0.00003282,-0.00014379,
 0.00005566\\\@


 IT CANNOT BE MY BEAUTY, FOR I HAVE NONE; AND IT CANNOT BE MY WIT,
 FOR HE HAS NOT ENOUGH TO KNOW THAT I HAVE ANY.
 -- CATHARINE SEDLEY, PUZZLED ABOUT WHY SHE WAS MISTRESS TO JAMES II
 Job cpu time:       0 days  0 hours  1 minutes 12.1 seconds.
 Elapsed time:       0 days  0 hours  1 minutes 12.4 seconds.
 File lengths (MBytes):  RWF=    272 Int=      0 D2E=      0 Chk=     32 Scr=     32
 Normal termination of Gaussian 16 at Fri Oct 26 11:14:56 2018.
