 Entering Gaussian System, Link 0=g16
 Input=practice2.com
 Output=practice2.log
 Initial command:
 /shared/centos7/gaussian/g16/l1.exe "/scratch/dinius.ab/QMscratch/Gau-18653.inp" -scrdir="/scratch/dinius.ab/QMscratch/"
 Entering Link 1 = /shared/centos7/gaussian/g16/l1.exe PID=     18654.
  
 Copyright (c) 1988,1990,1992,1993,1995,1998,2003,2009,2016,
            Gaussian, Inc.  All Rights Reserved.
  
 This is part of the Gaussian(R) 16 program.  It is based on
 the Gaussian(R) 09 system (copyright 2009, Gaussian, Inc.),
 the Gaussian(R) 03 system (copyright 2003, Gaussian, Inc.),
 the Gaussian(R) 98 system (copyright 1998, Gaussian, Inc.),
 the Gaussian(R) 94 system (copyright 1995, Gaussian, Inc.),
 the Gaussian 92(TM) system (copyright 1992, Gaussian, Inc.),
 the Gaussian 90(TM) system (copyright 1990, Gaussian, Inc.),
 the Gaussian 88(TM) system (copyright 1988, Gaussian, Inc.),
 the Gaussian 86(TM) system (copyright 1986, Carnegie Mellon
 University), and the Gaussian 82(TM) system (copyright 1983,
 Carnegie Mellon University). Gaussian is a federally registered
 trademark of Gaussian, Inc.
  
 This software contains proprietary and confidential information,
 including trade secrets, belonging to Gaussian, Inc.
  
 This software is provided under written license and may be
 used, copied, transmitted, or stored only in accord with that
 written license.
  
 The following legend is applicable only to US Government
 contracts under FAR:
  
                    RESTRICTED RIGHTS LEGEND
  
 Use, reproduction and disclosure by the US Government is
 subject to restrictions as set forth in subparagraphs (a)
 and (c) of the Commercial Computer Software - Restricted
 Rights clause in FAR 52.227-19.
  
 Gaussian, Inc.
 340 Quinnipiac St., Bldg. 40, Wallingford CT 06492
  
  
 ---------------------------------------------------------------
 Warning -- This program may not be used in any manner that
 competes with the business of Gaussian, Inc. or will provide
 assistance to any competitor of Gaussian, Inc.  The licensee
 of this program is prohibited from giving any competitor of
 Gaussian, Inc. access to this program.  By using this program,
 the user acknowledges that Gaussian, Inc. is engaged in the
 business of creating and licensing software in the field of
 computational chemistry and represents and warrants to the
 licensee that it is not a competitor of Gaussian, Inc. and that
 it will not use this program in any manner prohibited above.
 ---------------------------------------------------------------
  

 Cite this work as:
 Gaussian 16, Revision A.03,
 M. J. Frisch, G. W. Trucks, H. B. Schlegel, G. E. Scuseria, 
 M. A. Robb, J. R. Cheeseman, G. Scalmani, V. Barone, 
 G. A. Petersson, H. Nakatsuji, X. Li, M. Caricato, A. V. Marenich, 
 J. Bloino, B. G. Janesko, R. Gomperts, B. Mennucci, H. P. Hratchian, 
 J. V. Ortiz, A. F. Izmaylov, J. L. Sonnenberg, D. Williams-Young, 
 F. Ding, F. Lipparini, F. Egidi, J. Goings, B. Peng, A. Petrone, 
 T. Henderson, D. Ranasinghe, V. G. Zakrzewski, J. Gao, N. Rega, 
 G. Zheng, W. Liang, M. Hada, M. Ehara, K. Toyota, R. Fukuda, 
 J. Hasegawa, M. Ishida, T. Nakajima, Y. Honda, O. Kitao, H. Nakai, 
 T. Vreven, K. Throssell, J. A. Montgomery, Jr., J. E. Peralta, 
 F. Ogliaro, M. J. Bearpark, J. J. Heyd, E. N. Brothers, K. N. Kudin, 
 V. N. Staroverov, T. A. Keith, R. Kobayashi, J. Normand, 
 K. Raghavachari, A. P. Rendell, J. C. Burant, S. S. Iyengar, 
 J. Tomasi, M. Cossi, J. M. Millam, M. Klene, C. Adamo, R. Cammi, 
 J. W. Ochterski, R. L. Martin, K. Morokuma, O. Farkas, 
 J. B. Foresman, and D. J. Fox, Gaussian, Inc., Wallingford CT, 2016.
 
 ******************************************
 Gaussian 16:  EM64L-G16RevA.03 25-Dec-2016
                24-Oct-2018 
 ******************************************
 ----------------------------------------------------------------------
 #N B3LYP/6-31G(d) Opt=(TS,EstmFC,noeigentest,ModRedundant,maxcycles=20
 0) Test
 ----------------------------------------------------------------------
 1/5=1,6=200,11=1,18=120,26=3,38=1/1,3;
 2/9=110,12=2,17=6,18=5,40=1/2;
 3/5=1,6=6,7=1,11=2,25=1,30=1,71=1,74=-5/1,2,3;
 4//1;
 5/5=2,38=5/2;
 6/7=2,8=2,9=2,10=2,28=1/1;
 7//1,2,3,16;
 1/5=1,6=200,11=1,18=20,26=3/3(2);
 2/9=110/2;
 99//99;
 2/9=110/2;
 3/5=1,6=6,7=1,11=2,25=1,30=1,71=1,74=-5/1,2,3;
 4/5=5,16=3,69=1/1;
 5/5=2,38=5/2;
 7//1,2,3,16;
 1/5=1,6=200,11=1,18=20,26=3/3(-5);
 2/9=110/2;
 6/7=2,8=2,9=2,10=2,19=2,28=1/1;
 99/9=1/99;
 -----
 Title
 -----
 Symbolic Z-matrix:
 Charge =  0 Multiplicity = 2
 C                    -30.9569  -13.87996  -3.61992 
 C                    -31.43509  -14.14377  -2.38918 
 H                    -29.91561  -13.92334  -3.93871 
 H                    -31.63877  -13.70168  -4.46492 
 O                    -32.79282  -14.2102  -2.09317 
 H                    -30.38317  -14.33655  -2.10742 
 O                    -34.23549  -14.11562  -2.51871 
 H                    -34.22394  -14.51063  -3.52286 
 O                    -32.55801  -13.69882  -5.08436 
 O                    -33.08094  -14.92628  -4.45651 
 H                    -33.09306  -14.54046  -3.39369 
 
 The following ModRedundant input section has been read:
 

 GradGradGradGradGradGradGradGradGradGradGradGradGradGradGradGradGradGrad
 Berny optimization.
 Initialization pass.
                           ----------------------------
                           !    Initial Parameters    !
                           ! (Angstroms and Degrees)  !
 --------------------------                            --------------------------
 ! Name  Definition              Value          Derivative Info.                !
 --------------------------------------------------------------------------------
 ! R1    R(1,2)                  1.3465         estimate D2E/DX2                !
 ! R2    R(1,3)                  1.0899         estimate D2E/DX2                !
 ! R3    R(1,4)                  1.1003         estimate D2E/DX2                !
 ! R4    R(2,5)                  1.3912         estimate D2E/DX2                !
 ! R5    R(2,6)                  1.1059         estimate D2E/DX2                !
 ! R6    R(4,9)                  1.1085         estimate D2E/DX2                !
 ! R7    R(5,7)                  1.5071         estimate D2E/DX2                !
 ! R8    R(7,8)                  1.0791         estimate D2E/DX2                !
 ! R9    R(9,10)                 1.4746         estimate D2E/DX2                !
 ! R10   R(10,11)                1.1307         estimate D2E/DX2                !
 ! A1    A(2,1,3)              126.7899         estimate D2E/DX2                !
 ! A2    A(2,1,4)              120.9041         estimate D2E/DX2                !
 ! A3    A(3,1,4)              111.956          estimate D2E/DX2                !
 ! A4    A(1,2,5)              123.3969         estimate D2E/DX2                !
 ! A5    A(1,2,6)               85.9417         estimate D2E/DX2                !
 ! A6    A(5,2,6)              149.9672         estimate D2E/DX2                !
 ! A7    A(1,4,9)              160.6407         estimate D2E/DX2                !
 ! A8    A(2,5,7)              150.5917         estimate D2E/DX2                !
 ! A9    A(5,7,8)              103.2692         estimate D2E/DX2                !
 ! A10   A(4,9,10)              93.0958         estimate D2E/DX2                !
 ! A11   A(9,10,11)             96.891          estimate D2E/DX2                !
 ! D1    D(3,1,2,5)           -172.6668         estimate D2E/DX2                !
 ! D2    D(3,1,2,6)              0.4509         estimate D2E/DX2                !
 ! D3    D(4,1,2,5)             -0.0252         estimate D2E/DX2                !
 ! D4    D(4,1,2,6)            173.0925         estimate D2E/DX2                !
 ! D5    D(2,1,4,9)            -19.6997         estimate D2E/DX2                !
 ! D6    D(3,1,4,9)            153.9511         estimate D2E/DX2                !
 ! D7    D(1,2,5,7)             -0.5468         estimate D2E/DX2                !
 ! D8    D(6,2,5,7)           -166.7297         estimate D2E/DX2                !
 ! D9    D(1,4,9,10)           -27.7111         estimate D2E/DX2                !
 ! D10   D(2,5,7,8)             35.1214         estimate D2E/DX2                !
 ! D11   D(4,9,10,11)           58.2288         estimate D2E/DX2                !
 --------------------------------------------------------------------------------
 Trust Radius=3.00D-01 FncErr=1.00D-07 GrdErr=1.00D-06 EigMax=2.50D+02 EigMin=1.00D-04
 Number of steps in this run=    100 maximum allowed number of steps=    100.
 Search for a saddle point of order  1.
 GradGradGradGradGradGradGradGradGradGradGradGradGradGradGradGradGradGrad

                          Input orientation:                          
 ---------------------------------------------------------------------
 Center     Atomic      Atomic             Coordinates (Angstroms)
 Number     Number       Type             X           Y           Z
 ---------------------------------------------------------------------
      1          6           0      -30.956900  -13.879960   -3.619920
      2          6           0      -31.435090  -14.143770   -2.389180
      3          1           0      -29.915610  -13.923340   -3.938710
      4          1           0      -31.638770  -13.701680   -4.464920
      5          8           0      -32.792820  -14.210200   -2.093170
      6          1           0      -30.383170  -14.336550   -2.107420
      7          8           0      -34.235490  -14.115620   -2.518710
      8          1           0      -34.223940  -14.510630   -3.522860
      9          8           0      -32.558010  -13.698820   -5.084360
     10          8           0      -33.080940  -14.926280   -4.456510
     11          1           0      -33.093060  -14.540460   -3.393690
 ---------------------------------------------------------------------
                    Distance matrix (angstroms):
                    1          2          3          4          5
     1  C    0.000000
     2  C    1.346470   0.000000
     3  H    1.089860   2.181388   0.000000
     4  H    1.100343   2.132047   1.815299   0.000000
     5  O    2.410524   1.391210   3.430254   2.686191   0.000000
     6  H    1.680862   1.105933   1.934678   2.745432   2.413002
     7  O    3.466605   2.803535   4.551344   3.271396   1.507092
     8  H    3.328771   3.032738   4.368014   2.867923   2.045086
     9  O    2.177372   2.953460   2.888806   1.108475   3.043659
    10  O    2.511218   2.755902   3.360553   1.891975   2.486194
    11  H    2.247358   1.978704   3.282388   1.991493   1.374979
                    6          7          8          9         10
     6  H    0.000000
     7  O    3.880508   0.000000
     8  H    4.096985   1.079112   0.000000
     9  O    3.741497   3.093577   2.423353   0.000000
    10  O    3.625461   2.396920   1.533270   1.474554   0.000000
    11  H    3.006588   1.500408   1.138624   1.962906   1.130748
                   11
    11  H    0.000000
 Stoichiometry    C2H5O4(2)
 Framework group  C1[X(C2H5O4)]
 Deg. of freedom    27
 Full point group                 C1      NOp   1
 Largest Abelian subgroup         C1      NOp   1
 Largest concise Abelian subgroup C1      NOp   1
                         Standard orientation:                         
 ---------------------------------------------------------------------
 Center     Atomic      Atomic             Coordinates (Angstroms)
 Number     Number       Type             X           Y           Z
 ---------------------------------------------------------------------
      1          6           0        1.455052    0.739300   -0.103095
      2          6           0        0.337872    1.465503    0.090606
      3          1           0        2.481640    1.062759    0.068033
      4          1           0        1.397259   -0.330301   -0.354829
      5          8           0       -0.945461    0.937753   -0.009399
      6          1           0        1.016305    2.279911    0.406134
      7          8           0       -1.871318   -0.221777   -0.273225
      8          1           0       -1.332243   -1.065651    0.128966
      9          8           0        0.999303   -1.359213   -0.462940
     10          8           0        0.088127   -1.213434    0.687198
     11          1           0       -0.485711   -0.322174    0.293554
 ---------------------------------------------------------------------
 Rotational constants (GHZ):           4.2545047           3.6325625           2.1753017
 Standard basis: 6-31G(d) (6D, 7F)
 There are   100 symmetry adapted cartesian basis functions of A   symmetry.
 There are   100 symmetry adapted basis functions of A   symmetry.
   100 basis functions,   188 primitive gaussians,   100 cartesian basis functions
    25 alpha electrons       24 beta electrons
       nuclear repulsion energy       256.2395369057 Hartrees.
 NAtoms=   11 NActive=   11 NUniq=   11 SFac= 1.00D+00 NAtFMM=   60 NAOKFM=F Big=F
 Integral buffers will be    131072 words long.
 Raffenetti 2 integral format.
 Two-electron integral symmetry is turned on.
 One-electron integrals computed using PRISM.
 NBasis=   100 RedAO= T EigKep=  4.35D-03  NBF=   100
 NBsUse=   100 1.00D-06 EigRej= -1.00D+00 NBFU=   100
 ExpMin= 1.61D-01 ExpMax= 5.48D+03 ExpMxC= 8.25D+02 IAcc=3 IRadAn=         5 AccDes= 0.00D+00
 Harris functional with IExCor=  402 and IRadAn=       5 diagonalized for initial guess.
 HarFok:  IExCor=  402 AccDes= 0.00D+00 IRadAn=         5 IDoV= 1 UseB2=F ITyADJ=14
 ICtDFT=  3500011 ScaDFX=  1.000000  1.000000  1.000000  1.000000
 FoFCou: FMM=F IPFlag=           0 FMFlag=      100000 FMFlg1=           0
         NFxFlg=           0 DoJE=T BraDBF=F KetDBF=T FulRan=T
         wScrn=  0.000000 ICntrl=       500 IOpCl=  0 I1Cent=   200000004 NGrid=           0
         NMat0=    1 NMatS0=      1 NMatT0=    0 NMatD0=    1 NMtDS0=    0 NMtDT0=    0
 Petite list used in FoFCou.
 Initial guess <Sx>= 0.0000 <Sy>= 0.0000 <Sz>= 0.5000 <S**2>= 0.7500 S= 0.5000
 Keep R1 and R2 ints in memory in canonical form, NReq=26433820.
 Requested convergence on RMS density matrix=1.00D-08 within 128 cycles.
 Requested convergence on MAX density matrix=1.00D-06.
 Requested convergence on             energy=1.00D-06.
 No special actions if energy rises.
 Integral accuracy reduced to 1.0D-05 until final iterations.
 Initial convergence to 1.0D-05 achieved.  Increase integral accuracy.
 SCF Done:  E(UB3LYP) =  -379.550558697     A.U. after   31 cycles
            NFock= 31  Conv=0.29D-08     -V/T= 2.0072
 <Sx>= 0.0000 <Sy>= 0.0000 <Sz>= 0.5000 <S**2>= 0.7647 S= 0.5073
 <L.S>= 0.000000000000E+00
 Annihilation of the first spin contaminant:
 S**2 before annihilation     0.7647,   after     0.7501

 **********************************************************************

            Population analysis using the SCF density.

 **********************************************************************

 Orbital symmetries:
 Alpha Orbitals:
       Occupied  (A) (A) (A) (A) (A) (A) (A) (A) (A) (A) (A) (A)
                 (A) (A) (A) (A) (A) (A) (A) (A) (A) (A) (A) (A)
                 (A)
       Virtual   (A) (A) (A) (A) (A) (A) (A) (A) (A) (A) (A) (A)
                 (A) (A) (A) (A) (A) (A) (A) (A) (A) (A) (A) (A)
                 (A) (A) (A) (A) (A) (A) (A) (A) (A) (A) (A) (A)
                 (A) (A) (A) (A) (A) (A) (A) (A) (A) (A) (A) (A)
                 (A) (A) (A) (A) (A) (A) (A) (A) (A) (A) (A) (A)
                 (A) (A) (A) (A) (A) (A) (A) (A) (A) (A) (A) (A)
                 (A) (A) (A)
 Beta  Orbitals:
       Occupied  (A) (A) (A) (A) (A) (A) (A) (A) (A) (A) (A) (A)
                 (A) (A) (A) (A) (A) (A) (A) (A) (A) (A) (A) (A)
       Virtual   (A) (A) (A) (A) (A) (A) (A) (A) (A) (A) (A) (A)
                 (A) (A) (A) (A) (A) (A) (A) (A) (A) (A) (A) (A)
                 (A) (A) (A) (A) (A) (A) (A) (A) (A) (A) (A) (A)
                 (A) (A) (A) (A) (A) (A) (A) (A) (A) (A) (A) (A)
                 (A) (A) (A) (A) (A) (A) (A) (A) (A) (A) (A) (A)
                 (A) (A) (A) (A) (A) (A) (A) (A) (A) (A) (A) (A)
                 (A) (A) (A) (A)
 The electronic state is 2-A.
 Alpha  occ. eigenvalues --  -19.26994 -19.24683 -19.23796 -19.22215 -10.30207
 Alpha  occ. eigenvalues --  -10.21372  -1.17166  -1.11380  -0.98509  -0.89766
 Alpha  occ. eigenvalues --   -0.80712  -0.64547  -0.62071  -0.56212  -0.51363
 Alpha  occ. eigenvalues --   -0.48929  -0.45454  -0.44176  -0.41308  -0.40291
 Alpha  occ. eigenvalues --   -0.34391  -0.32576  -0.29242  -0.26835  -0.26734
 Alpha virt. eigenvalues --   -0.14019  -0.01335  -0.00121   0.07334   0.09888
 Alpha virt. eigenvalues --    0.12754   0.19357   0.22764   0.31308   0.36443
 Alpha virt. eigenvalues --    0.46854   0.51117   0.55285   0.60074   0.64193
 Alpha virt. eigenvalues --    0.64680   0.68124   0.71888   0.75197   0.76585
 Alpha virt. eigenvalues --    0.79660   0.81853   0.84734   0.87877   0.89792
 Alpha virt. eigenvalues --    0.91932   0.97502   0.99533   1.02245   1.05441
 Alpha virt. eigenvalues --    1.06372   1.09767   1.19152   1.21574   1.23163
 Alpha virt. eigenvalues --    1.31759   1.35748   1.41093   1.43431   1.50307
 Alpha virt. eigenvalues --    1.53737   1.57266   1.61188   1.62344   1.63138
 Alpha virt. eigenvalues --    1.71310   1.74265   1.78939   1.80863   1.85005
 Alpha virt. eigenvalues --    1.89098   1.92914   1.93256   2.01727   2.03777
 Alpha virt. eigenvalues --    2.12968   2.22658   2.24860   2.29666   2.31740
 Alpha virt. eigenvalues --    2.35764   2.42469   2.52712   2.58644   2.73649
 Alpha virt. eigenvalues --    2.80256   2.89268   3.01640   3.22122   3.49168
 Alpha virt. eigenvalues --    3.80704   3.91389   4.09433   4.17348   4.35501
  Beta  occ. eigenvalues --  -19.26818 -19.24666 -19.22206 -19.22192 -10.30134
  Beta  occ. eigenvalues --  -10.20562  -1.16716  -1.09628  -0.98126  -0.87632
  Beta  occ. eigenvalues --   -0.79624  -0.62608  -0.61271  -0.54854  -0.50522
  Beta  occ. eigenvalues --   -0.47235  -0.45075  -0.42800  -0.40333  -0.39710
  Beta  occ. eigenvalues --   -0.33855  -0.31763  -0.28157  -0.26197
  Beta virt. eigenvalues --   -0.15273  -0.11315  -0.00540   0.00901   0.07658
  Beta virt. eigenvalues --    0.10323   0.13076   0.19635   0.23037   0.32023
  Beta virt. eigenvalues --    0.37456   0.47516   0.51374   0.55589   0.60547
  Beta virt. eigenvalues --    0.64758   0.65080   0.68709   0.72184   0.75738
  Beta virt. eigenvalues --    0.78833   0.80935   0.82151   0.85765   0.88495
  Beta virt. eigenvalues --    0.90226   0.92967   0.97804   1.00010   1.03048
  Beta virt. eigenvalues --    1.05797   1.06769   1.10260   1.19749   1.21852
  Beta virt. eigenvalues --    1.23969   1.32087   1.35949   1.42315   1.43893
  Beta virt. eigenvalues --    1.51247   1.54316   1.57478   1.61941   1.62620
  Beta virt. eigenvalues --    1.64657   1.72458   1.74766   1.79469   1.81991
  Beta virt. eigenvalues --    1.86398   1.90071   1.93655   1.93888   2.02707
  Beta virt. eigenvalues --    2.04903   2.14149   2.23159   2.25838   2.30044
  Beta virt. eigenvalues --    2.32567   2.36522   2.43712   2.53125   2.59417
  Beta virt. eigenvalues --    2.74071   2.80954   2.90434   3.02916   3.22549
  Beta virt. eigenvalues --    3.49452   3.82145   3.91998   4.09723   4.18226
  Beta virt. eigenvalues --    4.36376
          Condensed to atoms (all electrons):
               1          2          3          4          5          6
     1  C    5.647877   0.498674   0.335376   0.249511  -0.054108  -0.097828
     2  C    0.498674   4.789373  -0.042240  -0.012313   0.222014   0.364215
     3  H    0.335376  -0.042240   0.514665  -0.004405   0.002679   0.002226
     4  H    0.249511  -0.012313  -0.004405   0.345453  -0.003118   0.002642
     5  O   -0.054108   0.222014   0.002679  -0.003118   8.268187  -0.014924
     6  H   -0.097828   0.364215   0.002226   0.002642  -0.014924   0.491876
     7  O    0.001992  -0.009356  -0.000036   0.001153   0.041404   0.000690
     8  H    0.000988   0.000854  -0.000064   0.002354  -0.019546  -0.000170
     9  O   -0.109138  -0.004890  -0.000127   0.047644   0.004031   0.000594
    10  O   -0.001398  -0.000745   0.000826  -0.028771  -0.049416  -0.000055
    11  H   -0.015076  -0.008162   0.000400  -0.007598   0.031256   0.000504
               7          8          9         10         11
     1  C    0.001992   0.000988  -0.109138  -0.001398  -0.015076
     2  C   -0.009356   0.000854  -0.004890  -0.000745  -0.008162
     3  H   -0.000036  -0.000064  -0.000127   0.000826   0.000400
     4  H    0.001153   0.002354   0.047644  -0.028771  -0.007598
     5  O    0.041404  -0.019546   0.004031  -0.049416   0.031256
     6  H    0.000690  -0.000170   0.000594  -0.000055   0.000504
     7  O    8.240968   0.161270   0.003156  -0.070655  -0.011398
     8  H    0.161270   0.385883  -0.004529   0.081645  -0.059102
     9  O    0.003156  -0.004529   8.299452   0.066835  -0.014849
    10  O   -0.070655   0.081645   0.066835   8.327649   0.143714
    11  H   -0.011398  -0.059102  -0.014849   0.143714   0.439361
          Atomic-Atomic Spin Densities.
               1          2          3          4          5          6
     1  C    0.605044  -0.036935  -0.016880   0.029148  -0.006154  -0.000216
     2  C   -0.036935   0.072661   0.000200   0.000362  -0.017821   0.007724
     3  H   -0.016880   0.000200   0.014389   0.001927   0.000460  -0.002103
     4  H    0.029148   0.000362   0.001927  -0.042219  -0.000322  -0.000632
     5  O   -0.006154  -0.017821   0.000460  -0.000322   0.037108  -0.002271
     6  H   -0.000216   0.007724  -0.002103  -0.000632  -0.002271  -0.026009
     7  O    0.001659   0.002310  -0.000019  -0.000028  -0.020330   0.000096
     8  H   -0.002047  -0.000454   0.000034  -0.000326   0.004924  -0.000037
     9  O   -0.141936   0.005874   0.005119  -0.039584   0.003048  -0.000379
    10  O    0.011045  -0.000376  -0.000413   0.004557  -0.000939   0.000079
    11  H    0.011761   0.002101  -0.000494   0.002150  -0.015080   0.000480
               7          8          9         10         11
     1  C    0.001659  -0.002047  -0.141936   0.011045   0.011761
     2  C    0.002310  -0.000454   0.005874  -0.000376   0.002101
     3  H   -0.000019   0.000034   0.005119  -0.000413  -0.000494
     4  H   -0.000028  -0.000326  -0.039584   0.004557   0.002150
     5  O   -0.020330   0.004924   0.003048  -0.000939  -0.015080
     6  H    0.000096  -0.000037  -0.000379   0.000079   0.000480
     7  O    0.078270  -0.004866  -0.000565  -0.000774   0.006571
     8  H   -0.004866   0.005110   0.000024   0.004103  -0.004492
     9  O   -0.000565   0.000024   0.724675  -0.023314  -0.008833
    10  O   -0.000774   0.004103  -0.023314   0.004940   0.001049
    11  H    0.006571  -0.004492  -0.008833   0.001049   0.009660
 Mulliken charges and spin densities:
               1          2
     1  C   -0.456869   0.454488
     2  C    0.202577   0.035646
     3  H    0.190698   0.002220
     4  H    0.407449  -0.044968
     5  O   -0.428459  -0.017377
     6  H    0.250230  -0.023268
     7  O   -0.359187   0.062325
     8  H    0.450419   0.001974
     9  O   -0.288179   0.524128
    10  O   -0.469629  -0.000043
    11  H    0.500949   0.004875
 Sum of Mulliken charges =  -0.00000   1.00000
 Mulliken charges and spin densities with hydrogens summed into heavy atoms:
               1          2
     1  C    0.141278   0.411740
     2  C    0.452807   0.012378
     5  O   -0.428459  -0.017377
     7  O    0.091232   0.064300
     9  O   -0.288179   0.524128
    10  O    0.031321   0.004833
 Electronic spatial extent (au):  <R**2>=            550.2006
 Charge=             -0.0000 electrons
 Dipole moment (field-independent basis, Debye):
    X=              1.3822    Y=              1.7358    Z=              0.3909  Tot=              2.2531
 Quadrupole moment (field-independent basis, Debye-Ang):
   XX=            -33.6539   YY=            -33.9941   ZZ=            -37.4544
   XY=              6.8564   XZ=             -0.4626   YZ=              1.6341
 Traceless Quadrupole moment (field-independent basis, Debye-Ang):
   XX=              1.3802   YY=              1.0401   ZZ=             -2.4203
   XY=              6.8564   XZ=             -0.4626   YZ=              1.6341
 Octapole moment (field-independent basis, Debye-Ang**2):
  XXX=              5.7460  YYY=              2.3128  ZZZ=             -0.2718  XYY=             -1.0955
  XXY=             -1.9172  XXZ=              1.8217  XZZ=             -3.4510  YZZ=             -2.1814
  YYZ=              1.4713  XYZ=              2.1461
 Hexadecapole moment (field-independent basis, Debye-Ang**3):
 XXXX=           -299.4913 YYYY=           -265.0788 ZZZZ=            -57.4456 XXXY=             13.0899
 XXXZ=              0.1815 YYYX=             13.2382 YYYZ=              7.0715 ZZZX=             -0.9682
 ZZZY=              1.2807 XXYY=            -89.6577 XXZZ=            -63.9516 YYZZ=            -58.7984
 XXYZ=              1.7864 YYXZ=              4.3609 ZZXY=             -2.9524
 N-N= 2.562395369057D+02 E-N=-1.404658429393D+03  KE= 3.768246940141D+02
                          Isotropic Fermi Contact Couplings
        Atom                 a.u.       MegaHertz       Gauss      10(-4) cm-1
     1  C(13)              0.14605     164.19069      58.58732      54.76812
     2  C(13)              0.02609      29.32767      10.46484       9.78266
     3  H(1)               0.00434      19.39837       6.92182       6.47060
     4  H(1)              -0.01917     -85.69019     -30.57639     -28.58317
     5  O(17)              0.15740     -95.41460     -34.04630     -31.82689
     6  H(1)              -0.01061     -47.41325     -16.91823     -15.81536
     7  O(17)              0.00227      -1.37351      -0.49010      -0.45815
     8  H(1)              -0.00067      -2.99363      -1.06820      -0.99857
     9  O(17)              0.08533     -51.72883     -18.45813     -17.25488
    10  O(17)              0.01565      -9.48889      -3.38587      -3.16515
    11  H(1)               0.00127       5.65789       2.01888       1.88727
 --------------------------------------------------------
       Center         ----  Spin Dipole Couplings  ----
                      3XX-RR        3YY-RR        3ZZ-RR
 --------------------------------------------------------
     1   Atom       -0.295430      0.472771     -0.177341
     2   Atom        0.061072      0.034069     -0.095141
     3   Atom        0.034169     -0.005650     -0.028519
     4   Atom       -0.123823      0.263157     -0.139335
     5   Atom        0.068604      0.020057     -0.088661
     6   Atom        0.007101      0.009780     -0.016881
     7   Atom        0.049646     -0.006308     -0.043338
     8   Atom        0.008095      0.002418     -0.010513
     9   Atom       -0.818084      1.848415     -1.030331
    10   Atom        0.001374      0.123986     -0.125360
    11   Atom        0.021797     -0.007537     -0.014260
 --------------------------------------------------------
                        XY            XZ            YZ
 --------------------------------------------------------
     1   Atom        0.023645      0.002371      0.171444
     2   Atom       -0.101684     -0.034054      0.046341
     3   Atom        0.016386      0.008971      0.006606
     4   Atom        0.102014      0.010858      0.066714
     5   Atom       -0.045011     -0.011156     -0.141607
     6   Atom       -0.007555     -0.002320      0.010067
     7   Atom        0.137707      0.233279      0.212961
     8   Atom       -0.005010      0.000836     -0.002940
     9   Atom        1.009495      0.112415      0.468949
    10   Atom        0.119583      0.059057      0.008965
    11   Atom       -0.006469     -0.006001      0.004948
 --------------------------------------------------------


 ---------------------------------------------------------------------------------
              Anisotropic Spin Dipole Couplings in Principal Axis System
 ---------------------------------------------------------------------------------

       Atom             a.u.   MegaHertz   Gauss  10(-4) cm-1        Axes

              Baa    -0.2963   -39.755   -14.186   -13.261  0.9986 -0.0387  0.0359
     1 C(13)  Bbb    -0.2196   -29.473   -10.517    -9.831 -0.0441 -0.2387  0.9701
              Bcc     0.5159    69.228    24.702    23.092  0.0290  0.9703  0.2401
 
              Baa    -0.1101   -14.769    -5.270    -4.926  0.0131 -0.2977  0.9546
     2 C(13)  Bbb    -0.0524    -7.027    -2.507    -2.344  0.6868  0.6965  0.2078
              Bcc     0.1624    21.796     7.777     7.270  0.7268 -0.6529 -0.2136
 
              Baa    -0.0307   -16.360    -5.838    -5.457 -0.0837 -0.2028  0.9756
     3 H(1)   Bbb    -0.0110    -5.875    -2.096    -1.960 -0.3644  0.9175  0.1594
              Bcc     0.0417    22.235     7.934     7.417  0.9275  0.3422  0.1507
 
              Baa    -0.1548   -82.601   -29.474   -27.553  0.6401 -0.2710  0.7189
     4 H(1)   Bbb    -0.1440   -76.805   -27.406   -25.619  0.7313 -0.0721 -0.6783
              Bcc     0.2988   159.406    56.880    53.172  0.2356  0.9599  0.1520
 
              Baa    -0.1907    13.798     4.923     4.602  0.1342  0.5723  0.8090
     5 O(17)  Bbb     0.0577    -4.174    -1.489    -1.392  0.8818  0.3035 -0.3609
              Bcc     0.1330    -9.624    -3.434    -3.210 -0.4521  0.7618 -0.4639
 
              Baa    -0.0203   -10.808    -3.857    -3.605 -0.0079 -0.3196  0.9475
     6 H(1)   Bbb     0.0017     0.890     0.318     0.297  0.8239  0.5349  0.1873
              Bcc     0.0186     9.918     3.539     3.308 -0.5667  0.7821  0.2591
 
              Baa    -0.2736    19.794     7.063     6.603 -0.3951 -0.4393  0.8068
     7 O(17)  Bbb    -0.1178     8.523     3.041     2.843 -0.6835  0.7273  0.0613
              Bcc     0.3913   -28.317   -10.104    -9.446  0.6137  0.5273  0.5877
 
              Baa    -0.0112    -5.951    -2.123    -1.985  0.0140  0.2167  0.9761
     8 H(1)   Bbb    -0.0001    -0.047    -0.017    -0.016  0.5267  0.8282 -0.1914
              Bcc     0.0112     5.998     2.140     2.001  0.8500 -0.5168  0.1025
 
              Baa    -1.1797    85.365    30.460    28.475  0.8151 -0.3439  0.4662
     9 O(17)  Bbb    -1.0779    77.998    27.832    26.017 -0.4873  0.0282  0.8728
              Bcc     2.2577  -163.363   -58.292   -54.492  0.3133  0.9386  0.1446
 
              Baa    -0.1547    11.196     3.995     3.735 -0.4594  0.1690  0.8720
    10 O(17)  Bbb    -0.0470     3.398     1.212     1.133  0.7093 -0.5211  0.4747
              Bcc     0.2017   -14.594    -5.208    -4.868  0.5346  0.8366  0.1195
 
              Baa    -0.0170    -9.091    -3.244    -3.032  0.0690 -0.4234  0.9033
    11 H(1)   Bbb    -0.0074    -3.929    -1.402    -1.311  0.2753  0.8784  0.3907
              Bcc     0.0244    13.020     4.646     4.343  0.9589 -0.2217 -0.1772
 

 ---------------------------------------------------------------------------------

 Calling FoFJK, ICntrl=      2127 FMM=F ISym2X=0 I1Cent= 0 IOpClX= 1 NMat=1 NMatS=1 NMatT=0.
 ***** Axes restored to original set *****
 -------------------------------------------------------------------
 Center     Atomic                   Forces (Hartrees/Bohr)
 Number     Number              X              Y              Z
 -------------------------------------------------------------------
      1        6           0.047328282   -0.002270623    0.060091819
      2        6           0.013225351    0.035745086   -0.112458688
      3        1           0.000509499    0.001228129    0.004001816
      4        1           0.012083067    0.019101227   -0.023176606
      5        8           0.029054041   -0.025053490    0.097093284
      6        1          -0.023124597   -0.017825365    0.066514359
      7        8          -0.027539741    0.018972511   -0.015001158
      8        1          -0.026753748    0.014769170    0.022710202
      9        8          -0.073646095   -0.025092135   -0.031121177
     10        8          -0.003755737    0.027590003    0.011103405
     11        1           0.052619678   -0.047164510   -0.079757256
 -------------------------------------------------------------------
 Cartesian Forces:  Max     0.112458688 RMS     0.042378238

 GradGradGradGradGradGradGradGradGradGradGradGradGradGradGradGradGradGrad
 Berny optimization.
 FormGI is forming the generalized inverse of G from B-inverse, IUseBI=4.
 Internal  Forces:  Max     0.234724045 RMS     0.083187497
 Search for a saddle point.
 Step number   1 out of a maximum of  100
 All quantities printed in internal units (Hartrees-Bohrs-Radians)
 Swapping is turned off.
 Second derivative matrix not updated -- first step.
 ITU=  0
     Eigenvalues ---    0.00230   0.00230   0.00230   0.00309   0.01808
     Eigenvalues ---    0.02131   0.02209   0.02797   0.15816   0.15954
     Eigenvalues ---    0.16000   0.16000   0.16000   0.16000   0.21923
     Eigenvalues ---    0.25000   0.25000   0.30498   0.31645   0.32762
     Eigenvalues ---    0.33034   0.33644   0.34829   0.35201   0.36102
     Eigenvalues ---    0.47109   0.55779
 Eigenvectors required to have negative eigenvalues:
                          D10       D6        D5        D9        D11
   1                   -0.92828  -0.21969  -0.21969  -0.20437   0.00000
                          D4        D2        D3        D8        D1
   1                   -0.00000  -0.00000  -0.00000   0.00000  -0.00000
 RFO step:  Lambda0=1.045156024D-01 Lambda=-4.11100334D-01.
 Linear search not attempted -- option 19 set.
 Maximum step size (   0.300) exceeded in Quadratic search.
    -- Step size scaled by   0.579
 Iteration  1 RMS(Cart)=  0.41877877 RMS(Int)=  0.05782716
 Iteration  2 RMS(Cart)=  0.09605814 RMS(Int)=  0.01487373
 Iteration  3 RMS(Cart)=  0.02360467 RMS(Int)=  0.00166683
 Iteration  4 RMS(Cart)=  0.00092096 RMS(Int)=  0.00132800
 Iteration  5 RMS(Cart)=  0.00000142 RMS(Int)=  0.00132800
 Iteration  6 RMS(Cart)=  0.00000000 RMS(Int)=  0.00132800
 Variable       Old X    -DE/DX   Delta X   Delta X   Delta X     New X
                                 (Linear)    (Quad)   (Total)
    R1        2.54446   0.06107   0.00000   0.03647   0.03647   2.58093
    R2        2.05954  -0.00073   0.00000  -0.00056  -0.00056   2.05898
    R3        2.07935   0.09815   0.00000   0.07597   0.07597   2.15532
    R4        2.62901   0.04652   0.00000   0.03051   0.03051   2.65952
    R5        2.08991  -0.00194   0.00000  -0.00152  -0.00152   2.08840
    R6        2.09471   0.07619   0.00000   0.05968   0.05968   2.15439
    R7        2.84799   0.05191   0.00000   0.04129   0.04129   2.88928
    R8        2.03923  -0.02683   0.00000  -0.02010  -0.02010   2.01912
    R9        2.78650  -0.03027   0.00000  -0.02295  -0.02295   2.76355
   R10        2.13680  -0.09162   0.00000  -0.07403  -0.07403   2.06277
    A1        2.21290  -0.04282   0.00000  -0.04330  -0.04333   2.16957
    A2        2.11018   0.09513   0.00000   0.09647   0.09644   2.20662
    A3        1.95400  -0.05117   0.00000  -0.05176  -0.05179   1.90221
    A4        2.15368   0.16700   0.00000   0.15383   0.15395   2.30763
    A5        1.49997  -0.01673   0.00000  -0.00805  -0.00799   1.49198
    A6        2.61742  -0.14584   0.00000  -0.14015  -0.14082   2.47661
    A7        2.80371   0.01918   0.00000   0.01679   0.01679   2.82049
    A8        2.62832   0.08998   0.00000   0.07875   0.07875   2.70707
    A9        1.80239   0.05506   0.00000   0.05579   0.05579   1.85818
   A10        1.62483  -0.01613   0.00000  -0.01634  -0.01634   1.60849
   A11        1.69107  -0.00509   0.00000  -0.00516  -0.00516   1.68591
    D1       -3.01360  -0.05505   0.00000  -0.07616  -0.07897  -3.09258
    D2        0.00787  -0.05540   0.00000  -0.06943  -0.06659  -0.05872
    D3       -0.00044  -0.04613   0.00000  -0.06438  -0.06721  -0.06765
    D4        3.02103  -0.04648   0.00000  -0.05764  -0.05483   2.96620
    D5       -0.34382  -0.12527   0.00000  -0.06722  -0.06726  -0.41108
    D6        2.68695  -0.11885   0.00000  -0.05835  -0.05831   2.62864
    D7       -0.00954  -0.00209   0.00000  -0.00762  -0.01109  -0.02063
    D8       -2.90998  -0.06372   0.00000  -0.08110  -0.07763  -2.98761
    D9       -0.48365  -0.23472   0.00000  -0.22802  -0.22802  -0.71167
   D10        0.61298  -0.00190   0.00000   0.45391   0.45391   1.06689
   D11        1.01628  -0.11530   0.00000  -0.16107  -0.16107   0.85521
         Item               Value     Threshold  Converged?
 Maximum Force            0.234724     0.000450     NO 
 RMS     Force            0.083187     0.000300     NO 
 Maximum Displacement     1.419038     0.001800     NO 
 RMS     Displacement     0.507891     0.001200     NO 
 Predicted change in Energy=-1.910677D-01
 GradGradGradGradGradGradGradGradGradGradGradGradGradGradGradGradGradGrad

                          Input orientation:                          
 ---------------------------------------------------------------------
 Center     Atomic      Atomic             Coordinates (Angstroms)
 Number     Number       Type             X           Y           Z
 ---------------------------------------------------------------------
      1          6           0      -30.971515  -13.863259   -3.605818
      2          6           0      -31.522143  -14.085462   -2.375876
      3          1           0      -29.909380  -13.958260   -3.829411
      4          1           0      -31.537807  -13.658507   -4.574441
      5          8           0      -32.852503  -14.063020   -1.917303
      6          1           0      -30.500454  -14.371730   -2.066818
      7          8           0      -34.363883  -13.877321   -2.054785
      8          1           0      -34.693504  -14.597516   -2.771937
      9          8           0      -32.365269  -13.628386   -5.358103
     10          8           0      -32.773890  -15.000442   -5.059552
     11          1           0      -32.823452  -14.883408   -3.975405
 ---------------------------------------------------------------------
                    Distance matrix (angstroms):
                    1          2          3          4          5
     1  C    0.000000
     2  C    1.365768   0.000000
     3  H    1.089564   2.174845   0.000000
     4  H    1.140544   2.239693   1.815681   0.000000
     5  O    2.535567   1.407355   3.511282   2.992062   0.000000
     6  H    1.687886   1.105131   1.904483   2.805880   2.376929
     7  O    3.730156   2.867387   4.795670   3.792526   1.528940
     8  H    3.884287   3.236756   4.941127   3.753556   2.098897
     9  O    2.251270   3.132644   2.911547   1.140056   3.502200
    10  O    2.579745   3.099383   3.287067   1.887863   3.280040
    11  H    2.146385   2.211022   3.060887   1.874063   2.215776
                    6          7          8          9         10
     6  H    0.000000
     7  O    3.894955   0.000000
     8  H    4.257915   1.068475   0.000000
     9  O    3.855211   3.868894   3.612221   0.000000
    10  O    3.810544   3.580238   3.013378   1.462410   0.000000
    11  H    3.049728   2.659685   2.242134   1.922723   1.091571
                   11
    11  H    0.000000
 Stoichiometry    C2H5O4(2)
 Framework group  C1[X(C2H5O4)]
 Deg. of freedom    27
 Full point group                 C1      NOp   1
 Largest Abelian subgroup         C1      NOp   1
 Largest concise Abelian subgroup C1      NOp   1
                         Standard orientation:                         
 ---------------------------------------------------------------------
 Center     Atomic      Atomic             Coordinates (Angstroms)
 Number     Number       Type             X           Y           Z
 ---------------------------------------------------------------------
      1          6           0        0.820901    1.336078   -0.140095
      2          6           0       -0.514020    1.349038    0.148248
      3          1           0        1.492209    2.178994    0.021108
      4          1           0        1.431874    0.434616   -0.479093
      5          8           0       -1.510519    0.359292    0.058578
      6          1           0       -0.329457    2.363868    0.544949
      7          8           0       -2.059285   -1.031097   -0.262878
      8          1           0       -1.526793   -1.717984    0.358633
      9          8           0        1.770409   -0.640629   -0.649290
     10          8           0        1.387341   -1.034203    0.706070
     11          1           0        0.387320   -0.597090    0.685639
 ---------------------------------------------------------------------
 Rotational constants (GHZ):           4.3168673           2.2848693           1.6664117
 Standard basis: 6-31G(d) (6D, 7F)
 There are   100 symmetry adapted cartesian basis functions of A   symmetry.
 There are   100 symmetry adapted basis functions of A   symmetry.
   100 basis functions,   188 primitive gaussians,   100 cartesian basis functions
    25 alpha electrons       24 beta electrons
       nuclear repulsion energy       235.2040731989 Hartrees.
 NAtoms=   11 NActive=   11 NUniq=   11 SFac= 1.00D+00 NAtFMM=   60 NAOKFM=F Big=F
 Integral buffers will be    131072 words long.
 Raffenetti 2 integral format.
 Two-electron integral symmetry is turned on.
 One-electron integrals computed using PRISM.
 NBasis=   100 RedAO= T EigKep=  4.64D-03  NBF=   100
 NBsUse=   100 1.00D-06 EigRej= -1.00D+00 NBFU=   100
 Initial guess from the checkpoint file:  "/scratch/dinius.ab/QMscratch/Gau-18654.chk"
 B after Tr=    -0.000000   -0.000000   -0.000000
         Rot=    0.962687   -0.023683   -0.041589   -0.266351 Ang= -31.40 deg.
 Initial guess <Sx>= 0.0000 <Sy>= 0.0000 <Sz>= 0.5000 <S**2>= 0.7651 S= 0.5075
 ExpMin= 1.61D-01 ExpMax= 5.48D+03 ExpMxC= 8.25D+02 IAcc=2 IRadAn=         4 AccDes= 0.00D+00
 Harris functional with IExCor=  402 and IRadAn=       4 diagonalized for initial guess.
 HarFok:  IExCor=  402 AccDes= 0.00D+00 IRadAn=         4 IDoV= 1 UseB2=F ITyADJ=14
 ICtDFT=  3500011 ScaDFX=  1.000000  1.000000  1.000000  1.000000
 FoFCou: FMM=F IPFlag=           0 FMFlag=      100000 FMFlg1=           0
         NFxFlg=           0 DoJE=T BraDBF=F KetDBF=T FulRan=T
         wScrn=  0.000000 ICntrl=       500 IOpCl=  0 I1Cent=   200000004 NGrid=           0
         NMat0=    1 NMatS0=      1 NMatT0=    0 NMatD0=    1 NMtDS0=    0 NMtDT0=    0
 Petite list used in FoFCou.
 Keep R1 and R2 ints in memory in canonical form, NReq=26433820.
 Requested convergence on RMS density matrix=1.00D-08 within 128 cycles.
 Requested convergence on MAX density matrix=1.00D-06.
 Requested convergence on             energy=1.00D-06.
 No special actions if energy rises.
 Integral accuracy reduced to 1.0D-05 until final iterations.
 Initial convergence to 1.0D-05 achieved.  Increase integral accuracy.
 SCF Done:  E(UB3LYP) =  -379.615332268     A.U. after   32 cycles
            NFock= 32  Conv=0.81D-08     -V/T= 2.0090
 <Sx>= 0.0000 <Sy>= 0.0000 <Sz>= 0.5000 <S**2>= 0.7693 S= 0.5096
 <L.S>= 0.000000000000E+00
 Annihilation of the first spin contaminant:
 S**2 before annihilation     0.7693,   after     0.7502
 Calling FoFJK, ICntrl=      2127 FMM=F ISym2X=0 I1Cent= 0 IOpClX= 1 NMat=1 NMatS=1 NMatT=0.
 ***** Axes restored to original set *****
 -------------------------------------------------------------------
 Center     Atomic                   Forces (Hartrees/Bohr)
 Number     Number              X              Y              Z
 -------------------------------------------------------------------
      1        6           0.008554389    0.002171361    0.052915648
      2        6          -0.009975236    0.030538364   -0.110061273
      3        1           0.001538626    0.000816980    0.005083262
      4        1           0.014819638    0.018983512   -0.002006174
      5        8           0.049162486   -0.027057256    0.072256776
      6        1          -0.024846832   -0.016272889    0.063343548
      7        8          -0.000481663   -0.026629658   -0.067253462
      8        1           0.023441204    0.036397609    0.035283168
      9        8          -0.047939737   -0.027525208   -0.033968768
     10        8          -0.010172830    0.026845409    0.056552008
     11        1          -0.004100043   -0.018268224   -0.072144733
 -------------------------------------------------------------------
 Cartesian Forces:  Max     0.110061273 RMS     0.039711116

 GradGradGradGradGradGradGradGradGradGradGradGradGradGradGradGradGradGrad
 Berny optimization.
 FormGI is forming the generalized inverse of G from B-inverse, IUseBI=4.
 Internal  Forces:  Max     0.110543044 RMS     0.041085472
 Search for a saddle point.
 Step number   2 out of a maximum of  100
 All quantities printed in internal units (Hartrees-Bohrs-Radians)
 Swapping is turned off.
 Update second derivatives using D2CorX and points    1    2
 ITU=  0  0
     Eigenvalues ---   -0.20565   0.00230   0.00295   0.01760   0.02109
     Eigenvalues ---    0.02241   0.02550   0.09967   0.15189   0.15969
     Eigenvalues ---    0.15984   0.16000   0.16000   0.18325   0.23352
     Eigenvalues ---    0.24976   0.30117   0.31323   0.32414   0.33034
     Eigenvalues ---    0.33432   0.34829   0.35160   0.35883   0.45357
     Eigenvalues ---    0.54777   1.07033
 Eigenvectors required to have negative eigenvalues:
                          D10       D6        D5        A8        A5
   1                   -0.93705  -0.15534  -0.14866   0.12465  -0.11006
                          A10       A6        R6        R10       D9
   1                   -0.10455   0.09628  -0.06884   0.06660  -0.05919
 RFO step:  Lambda0=1.313638951D-02 Lambda=-1.40701001D-01.
 Linear search not attempted -- option 19 set.
 Maximum step size (   0.300) exceeded in Quadratic search.
    -- Step size scaled by   0.557
 Iteration  1 RMS(Cart)=  0.23646353 RMS(Int)=  0.01936549
 Iteration  2 RMS(Cart)=  0.02255740 RMS(Int)=  0.00029763
 Iteration  3 RMS(Cart)=  0.00024924 RMS(Int)=  0.00024283
 Iteration  4 RMS(Cart)=  0.00000012 RMS(Int)=  0.00024283
 Variable       Old X    -DE/DX   Delta X   Delta X   Delta X     New X
                                 (Linear)    (Quad)   (Total)
    R1        2.58093  -0.02034   0.00000  -0.01179  -0.01179   2.56913
    R2        2.05898   0.00039   0.00000   0.00034   0.00034   2.05932
    R3        2.15532   0.06733   0.00000   0.07437   0.07437   2.22969
    R4        2.65952  -0.05532   0.00000  -0.04201  -0.04201   2.61751
    R5        2.08840  -0.00104   0.00000  -0.00119  -0.00119   2.08721
    R6        2.15439   0.07872   0.00000   0.08615   0.08615   2.24054
    R7        2.88928  -0.01863   0.00000  -0.01644  -0.01644   2.87284
    R8        2.01912  -0.05545   0.00000  -0.05522  -0.05522   1.96391
    R9        2.76355  -0.00724   0.00000  -0.00891  -0.00891   2.75464
   R10        2.06277  -0.07343   0.00000  -0.08563  -0.08563   1.97714
    A1        2.16957  -0.00213   0.00000  -0.00731  -0.00731   2.16226
    A2        2.20662  -0.00526   0.00000   0.00071   0.00070   2.20732
    A3        1.90221   0.00755   0.00000   0.00719   0.00719   1.90940
    A4        2.30763  -0.00927   0.00000   0.00125   0.00129   2.30892
    A5        1.49198   0.07726   0.00000   0.12085   0.12089   1.61287
    A6        2.47661  -0.06800   0.00000  -0.12146  -0.12152   2.35508
    A7        2.82049   0.02926   0.00000   0.03745   0.03745   2.85794
    A8        2.70707  -0.11054   0.00000  -0.12946  -0.12946   2.57762
    A9        1.85818  -0.01307   0.00000  -0.01548  -0.01548   1.84269
   A10        1.60849   0.07677   0.00000   0.11986   0.11986   1.72835
   A11        1.68591   0.02490   0.00000   0.03888   0.03888   1.72479
    D1       -3.09258  -0.00140   0.00000  -0.01550  -0.01598  -3.10855
    D2       -0.05872  -0.00536   0.00000  -0.01854  -0.01804  -0.07677
    D3       -0.06765   0.00095   0.00000  -0.00780  -0.00829  -0.07594
    D4        2.96620  -0.00302   0.00000  -0.01083  -0.01035   2.95585
    D5       -0.41108  -0.00584   0.00000  -0.08132  -0.08134  -0.49242
    D6        2.62864  -0.00420   0.00000  -0.07536  -0.07534   2.55330
    D7       -0.02063   0.00215   0.00000   0.00061  -0.00007  -0.02071
    D8       -2.98761  -0.00560   0.00000  -0.02008  -0.01940  -3.00701
    D9       -0.71167  -0.01416   0.00000  -0.12126  -0.12126  -0.83293
   D10        1.06689  -0.00331   0.00000  -0.19667  -0.19667   0.87022
   D11        0.85521   0.00876   0.00000   0.01026   0.01026   0.86547
         Item               Value     Threshold  Converged?
 Maximum Force            0.110543     0.000450     NO 
 RMS     Force            0.041085     0.000300     NO 
 Maximum Displacement     0.630306     0.001800     NO 
 RMS     Displacement     0.241564     0.001200     NO 
 Predicted change in Energy=-6.080492D-02
 GradGradGradGradGradGradGradGradGradGradGradGradGradGradGradGradGradGrad

                          Input orientation:                          
 ---------------------------------------------------------------------
 Center     Atomic      Atomic             Coordinates (Angstroms)
 Number     Number       Type             X           Y           Z
 ---------------------------------------------------------------------
      1          6           0      -31.003076  -13.834151   -3.531688
      2          6           0      -31.488202  -14.048254   -2.279839
      3          1           0      -29.948219  -13.907217   -3.795279
      4          1           0      -31.639008  -13.647825   -4.507923
      5          8           0      -32.773547  -14.036823   -1.763764
      6          1           0      -30.495671  -14.342895   -1.895141
      7          8           0      -34.258203  -13.830739   -2.017653
      8          1           0      -34.481176  -14.407352   -2.853029
      9          8           0      -32.501680  -13.645611   -5.321277
     10          8           0      -32.813769  -15.069490   -5.327536
     11          1           0      -32.911248  -15.216952   -4.296320
 ---------------------------------------------------------------------
                    Distance matrix (angstroms):
                    1          2          3          4          5
     1  C    0.000000
     2  C    1.359527   0.000000
     3  H    1.089744   2.165178   0.000000
     4  H    1.179899   2.268798   1.853082   0.000000
     5  O    2.510219   1.385126   3.482287   2.994813   0.000000
     6  H    1.787334   1.104501   2.024856   2.935467   2.302098
     7  O    3.590009   2.790871   4.662806   3.618713   1.520242
     8  H    3.589752   3.068451   4.656787   3.375422   2.059075
     9  O    2.341792   3.231037   2.986179   1.185644   3.589270
    10  O    2.833680   3.476853   3.451097   2.018157   3.710592
    11  H    2.477483   2.730771   3.278107   2.031139   2.797411
                    6          7          8          9         10
     6  H    0.000000
     7  O    3.799205   0.000000
     8  H    4.099507   1.039256   0.000000
     9  O    4.030965   3.746141   3.254366   0.000000
    10  O    4.205099   3.817882   3.056445   1.457693   0.000000
    11  H    3.516340   2.988009   2.281056   1.920258   1.046257
                   11
    11  H    0.000000
 Stoichiometry    C2H5O4(2)
 Framework group  C1[X(C2H5O4)]
 Deg. of freedom    27
 Full point group                 C1      NOp   1
 Largest Abelian subgroup         C1      NOp   1
 Largest concise Abelian subgroup C1      NOp   1
                         Standard orientation:                         
 ---------------------------------------------------------------------
 Center     Atomic      Atomic             Coordinates (Angstroms)
 Number     Number       Type             X           Y           Z
 ---------------------------------------------------------------------
      1          6           0        0.416261    1.474055   -0.163966
      2          6           0       -0.882104    1.246556    0.168911
      3          1           0        0.916379    2.434130   -0.038754
      4          1           0        1.198833    0.668791   -0.526310
      5          8           0       -1.671903    0.109801    0.118136
      6          1           0       -1.000022    2.260191    0.591479
      7          8           0       -1.781707   -1.363413   -0.240638
      8          1           0       -0.960746   -1.820695    0.203175
      9          8           0        1.792516   -0.341937   -0.704415
     10          8           0        1.881570   -0.801200    0.676170
     11          1           0        0.876807   -0.692090    0.946724
 ---------------------------------------------------------------------
 Rotational constants (GHZ):           4.1875058           2.1182971           1.5694322
 Standard basis: 6-31G(d) (6D, 7F)
 There are   100 symmetry adapted cartesian basis functions of A   symmetry.
 There are   100 symmetry adapted basis functions of A   symmetry.
   100 basis functions,   188 primitive gaussians,   100 cartesian basis functions
    25 alpha electrons       24 beta electrons
       nuclear repulsion energy       231.0511148989 Hartrees.
 NAtoms=   11 NActive=   11 NUniq=   11 SFac= 1.00D+00 NAtFMM=   60 NAOKFM=F Big=F
 Integral buffers will be    131072 words long.
 Raffenetti 2 integral format.
 Two-electron integral symmetry is turned on.
 One-electron integrals computed using PRISM.
 NBasis=   100 RedAO= T EigKep=  4.71D-03  NBF=   100
 NBsUse=   100 1.00D-06 EigRej= -1.00D+00 NBFU=   100
 Initial guess from the checkpoint file:  "/scratch/dinius.ab/QMscratch/Gau-18654.chk"
 B after Tr=     0.000000    0.000000    0.000000
         Rot=    0.994295   -0.005093   -0.019333   -0.104774 Ang= -12.25 deg.
 Initial guess <Sx>= 0.0000 <Sy>= 0.0000 <Sz>= 0.5000 <S**2>= 0.7689 S= 0.5094
 ExpMin= 1.61D-01 ExpMax= 5.48D+03 ExpMxC= 8.25D+02 IAcc=2 IRadAn=         4 AccDes= 0.00D+00
 Harris functional with IExCor=  402 and IRadAn=       4 diagonalized for initial guess.
 HarFok:  IExCor=  402 AccDes= 0.00D+00 IRadAn=         4 IDoV= 1 UseB2=F ITyADJ=14
 ICtDFT=  3500011 ScaDFX=  1.000000  1.000000  1.000000  1.000000
 FoFCou: FMM=F IPFlag=           0 FMFlag=      100000 FMFlg1=           0
         NFxFlg=           0 DoJE=T BraDBF=F KetDBF=T FulRan=T
         wScrn=  0.000000 ICntrl=       500 IOpCl=  0 I1Cent=   200000004 NGrid=           0
         NMat0=    1 NMatS0=      1 NMatT0=    0 NMatD0=    1 NMtDS0=    0 NMtDT0=    0
 Petite list used in FoFCou.
 Keep R1 and R2 ints in memory in canonical form, NReq=26433820.
 Requested convergence on RMS density matrix=1.00D-08 within 128 cycles.
 Requested convergence on MAX density matrix=1.00D-06.
 Requested convergence on             energy=1.00D-06.
 No special actions if energy rises.
 Integral accuracy reduced to 1.0D-05 until final iterations.
 Initial convergence to 1.0D-05 achieved.  Increase integral accuracy.
 SCF Done:  E(UB3LYP) =  -379.676031478     A.U. after   27 cycles
            NFock= 27  Conv=0.61D-08     -V/T= 2.0092
 <Sx>= 0.0000 <Sy>= 0.0000 <Sz>= 0.5000 <S**2>= 0.7580 S= 0.5040
 <L.S>= 0.000000000000E+00
 Annihilation of the first spin contaminant:
 S**2 before annihilation     0.7580,   after     0.7501
 Calling FoFJK, ICntrl=      2127 FMM=F ISym2X=0 I1Cent= 0 IOpClX= 1 NMat=1 NMatS=1 NMatT=0.
 ***** Axes restored to original set *****
 -------------------------------------------------------------------
 Center     Atomic                   Forces (Hartrees/Bohr)
 Number     Number              X              Y              Z
 -------------------------------------------------------------------
      1        6          -0.004260656    0.001195056    0.021201064
      2        6          -0.008393797    0.022407146   -0.102883785
      3        1           0.000298387   -0.000179820    0.005269262
      4        1           0.014544729    0.008924203    0.015176998
      5        8           0.032540669   -0.023008580    0.073182436
      6        1          -0.028307215   -0.009172227    0.053444202
      7        8           0.019634362   -0.015977849   -0.063205099
      8        1           0.012346061    0.023263491    0.032071791
      9        8          -0.040319971   -0.028068287   -0.030932271
     10        8           0.000388316    0.019642698    0.046782570
     11        1           0.001529117    0.000974168   -0.050107168
 -------------------------------------------------------------------
 Cartesian Forces:  Max     0.102883785 RMS     0.033790176

 GradGradGradGradGradGradGradGradGradGradGradGradGradGradGradGradGradGrad
 Berny optimization.
 FormGI is forming the generalized inverse of G from B-inverse, IUseBI=4.
 Internal  Forces:  Max     0.112577213 RMS     0.031996778
 Search for a saddle point.
 Step number   3 out of a maximum of  100
 All quantities printed in internal units (Hartrees-Bohrs-Radians)
 Swapping is turned off.
 Update second derivatives using D2CorX and points    2    3
 ITU=  0  0  0
     Eigenvalues ---   -0.18981   0.00206   0.00472   0.01478   0.01936
     Eigenvalues ---    0.02107   0.02388   0.02725   0.12396   0.15973
     Eigenvalues ---    0.16000   0.16000   0.17530   0.20492   0.22301
     Eigenvalues ---    0.26263   0.30366   0.31377   0.32632   0.33051
     Eigenvalues ---    0.34290   0.34832   0.35743   0.38155   0.45292
     Eigenvalues ---    0.54769   1.06075
 Eigenvectors required to have negative eigenvalues:
                          D10       A10       D6        D5        A5
   1                   -0.92856  -0.20068  -0.14861  -0.13704  -0.10791
                          A6        R3        A8        R6        R10
   1                    0.08444  -0.08008   0.07656  -0.07359   0.06944
 RFO step:  Lambda0=6.181957476D-03 Lambda=-1.49837697D-01.
 Linear search not attempted -- option 19 set.
 Maximum step size (   0.300) exceeded in Quadratic search.
    -- Step size scaled by   0.367
 Iteration  1 RMS(Cart)=  0.17143901 RMS(Int)=  0.01139631
 Iteration  2 RMS(Cart)=  0.01484841 RMS(Int)=  0.00038178
 Iteration  3 RMS(Cart)=  0.00010731 RMS(Int)=  0.00037437
 Iteration  4 RMS(Cart)=  0.00000002 RMS(Int)=  0.00037437
 Variable       Old X    -DE/DX   Delta X   Delta X   Delta X     New X
                                 (Linear)    (Quad)   (Total)
    R1        2.56913  -0.01634   0.00000  -0.01270  -0.01270   2.55644
    R2        2.05932  -0.00097   0.00000  -0.00252  -0.00252   2.05680
    R3        2.22969   0.02888   0.00000   0.01527   0.01527   2.24496
    R4        2.61751  -0.04434   0.00000  -0.04285  -0.04285   2.57466
    R5        2.08721  -0.00438   0.00000  -0.00936  -0.00936   2.07785
    R6        2.24054   0.05143   0.00000   0.05724   0.05724   2.29778
    R7        2.87284  -0.02505   0.00000  -0.04091  -0.04091   2.83194
    R8        1.96391  -0.04134   0.00000  -0.04788  -0.04788   1.91603
    R9        2.75464  -0.02053   0.00000  -0.04114  -0.04114   2.71350
   R10        1.97714  -0.04967   0.00000  -0.06092  -0.06092   1.91621
    A1        2.16226  -0.00071   0.00000  -0.00308  -0.00308   2.15919
    A2        2.20732  -0.00857   0.00000  -0.01586  -0.01586   2.19146
    A3        1.90940   0.00933   0.00000   0.01896   0.01896   1.92837
    A4        2.30892  -0.00409   0.00000   0.00980   0.00979   2.31871
    A5        1.61287   0.06547   0.00000   0.12814   0.12815   1.74102
    A6        2.35508  -0.06115   0.00000  -0.13617  -0.13629   2.21879
    A7        2.85794   0.00561   0.00000  -0.01348  -0.01348   2.84446
    A8        2.57762  -0.11258   0.00000  -0.19373  -0.19373   2.38389
    A9        1.84269  -0.00644   0.00000  -0.00044  -0.00044   1.84226
   A10        1.72835   0.02048   0.00000  -0.03515  -0.03515   1.69320
   A11        1.72479   0.01312   0.00000   0.01200   0.01200   1.73679
    D1       -3.10855  -0.00198   0.00000  -0.01756  -0.01826  -3.12681
    D2       -0.07677  -0.00334   0.00000  -0.01048  -0.00979  -0.08655
    D3       -0.07594  -0.00084   0.00000  -0.01606  -0.01675  -0.09269
    D4        2.95585  -0.00220   0.00000  -0.00898  -0.00828   2.94757
    D5       -0.49242  -0.00562   0.00000  -0.05913  -0.05913  -0.55155
    D6        2.55330  -0.00498   0.00000  -0.05865  -0.05866   2.49464
    D7       -0.02071   0.00131   0.00000  -0.00111  -0.00224  -0.02294
    D8       -3.00701  -0.00674   0.00000  -0.03328  -0.03216  -3.03916
    D9       -0.83293  -0.01085   0.00000  -0.08144  -0.08144  -0.91437
   D10        0.87022  -0.00316   0.00000  -0.10163  -0.10163   0.76860
   D11        0.86547   0.00352   0.00000  -0.01892  -0.01892   0.84655
         Item               Value     Threshold  Converged?
 Maximum Force            0.112577     0.000450     NO 
 RMS     Force            0.031997     0.000300     NO 
 Maximum Displacement     0.455512     0.001800     NO 
 RMS     Displacement     0.172736     0.001200     NO 
 Predicted change in Energy=-5.135604D-02
 GradGradGradGradGradGradGradGradGradGradGradGradGradGradGradGradGradGrad

                          Input orientation:                          
 ---------------------------------------------------------------------
 Center     Atomic      Atomic             Coordinates (Angstroms)
 Number     Number       Type             X           Y           Z
 ---------------------------------------------------------------------
      1          6           0      -31.069494  -13.830048   -3.516297
      2          6           0      -31.496123  -14.066188   -2.254427
      3          1           0      -30.026611  -13.888492   -3.822270
      4          1           0      -31.768546  -13.635850   -4.456992
      5          8           0      -32.730350  -14.061434   -1.677423
      6          1           0      -30.549639  -14.384799   -1.794358
      7          8           0      -34.136403  -13.786211   -2.116806
      8          1           0      -34.240129  -14.258519   -3.007982
      9          8           0      -32.701064  -13.658549   -5.236987
     10          8           0      -32.804536  -15.086657   -5.345031
     11          1           0      -32.790905  -15.330563   -4.360879
 ---------------------------------------------------------------------
                    Distance matrix (angstroms):
                    1          2          3          4          5
     1  C    0.000000
     2  C    1.352808   0.000000
     3  H    1.088411   2.156193   0.000000
     4  H    1.187979   2.260685   1.871106   0.000000
     5  O    2.488662   1.362452   3.455500   2.971901   0.000000
     6  H    1.882304   1.099549   2.152278   3.022628   2.207655
     7  O    3.371413   2.658647   4.450781   3.332541   1.498596
     8  H    3.239583   2.852089   4.307403   2.931906   2.022044
     9  O    2.377437   3.242486   3.034303   1.215935   3.582411
    10  O    2.816683   3.507867   3.386926   1.991665   3.808928
    11  H    2.434773   2.777093   3.164014   1.981542   2.969055
                    6          7          8          9         10
     6  H    0.000000
     7  O    3.650638   0.000000
     8  H    3.886972   1.013918   0.000000
     9  O    4.124047   3.436862   2.774374   0.000000
    10  O    4.264322   3.726455   2.865054   1.435922   0.000000
    11  H    3.536209   3.038298   2.253855   1.889779   1.014017
                   11
    11  H    0.000000
 Stoichiometry    C2H5O4(2)
 Framework group  C1[X(C2H5O4)]
 Deg. of freedom    27
 Full point group                 C1      NOp   1
 Largest Abelian subgroup         C1      NOp   1
 Largest concise Abelian subgroup C1      NOp   1
                         Standard orientation:                         
 ---------------------------------------------------------------------
 Center     Atomic      Atomic             Coordinates (Angstroms)
 Number     Number       Type             X           Y           Z
 ---------------------------------------------------------------------
      1          6           0        0.209627    1.452725   -0.240610
      2          6           0       -1.046645    1.131447    0.144942
      3          1           0        0.620222    2.459113   -0.183734
      4          1           0        1.045214    0.681585   -0.584750
      5          8           0       -1.736351   -0.043266    0.170021
      6          1           0       -1.367876    2.098609    0.557756
      7          8           0       -1.474493   -1.467804   -0.214571
      8          1           0       -0.544162   -1.675993    0.130641
      9          8           0        1.727528   -0.318062   -0.701584
     10          8           0        2.008195   -0.502910    0.694457
     11          1           0        1.069684   -0.412013    1.067507
 ---------------------------------------------------------------------
 Rotational constants (GHZ):           4.4207878           2.1661406           1.6383338
 Standard basis: 6-31G(d) (6D, 7F)
 There are   100 symmetry adapted cartesian basis functions of A   symmetry.
 There are   100 symmetry adapted basis functions of A   symmetry.
   100 basis functions,   188 primitive gaussians,   100 cartesian basis functions
    25 alpha electrons       24 beta electrons
       nuclear repulsion energy       234.5398706484 Hartrees.
 NAtoms=   11 NActive=   11 NUniq=   11 SFac= 1.00D+00 NAtFMM=   60 NAOKFM=F Big=F
 Integral buffers will be    131072 words long.
 Raffenetti 2 integral format.
 Two-electron integral symmetry is turned on.
 One-electron integrals computed using PRISM.
 NBasis=   100 RedAO= T EigKep=  4.79D-03  NBF=   100
 NBsUse=   100 1.00D-06 EigRej= -1.00D+00 NBFU=   100
 Initial guess from the checkpoint file:  "/scratch/dinius.ab/QMscratch/Gau-18654.chk"
 B after Tr=     0.000000    0.000000   -0.000000
         Rot=    0.998078    0.024546   -0.005758   -0.056617 Ang=   7.11 deg.
 Initial guess <Sx>= 0.0000 <Sy>= 0.0000 <Sz>= 0.5000 <S**2>= 0.7579 S= 0.5039
 ExpMin= 1.61D-01 ExpMax= 5.48D+03 ExpMxC= 8.25D+02 IAcc=2 IRadAn=         4 AccDes= 0.00D+00
 Harris functional with IExCor=  402 and IRadAn=       4 diagonalized for initial guess.
 HarFok:  IExCor=  402 AccDes= 0.00D+00 IRadAn=         4 IDoV= 1 UseB2=F ITyADJ=14
 ICtDFT=  3500011 ScaDFX=  1.000000  1.000000  1.000000  1.000000
 FoFCou: FMM=F IPFlag=           0 FMFlag=      100000 FMFlg1=           0
         NFxFlg=           0 DoJE=T BraDBF=F KetDBF=T FulRan=T
         wScrn=  0.000000 ICntrl=       500 IOpCl=  0 I1Cent=   200000004 NGrid=           0
         NMat0=    1 NMatS0=      1 NMatT0=    0 NMatD0=    1 NMtDS0=    0 NMtDT0=    0
 Petite list used in FoFCou.
 Keep R1 and R2 ints in memory in canonical form, NReq=26433820.
 Requested convergence on RMS density matrix=1.00D-08 within 128 cycles.
 Requested convergence on MAX density matrix=1.00D-06.
 Requested convergence on             energy=1.00D-06.
 No special actions if energy rises.
 Integral accuracy reduced to 1.0D-05 until final iterations.
 Initial convergence to 1.0D-05 achieved.  Increase integral accuracy.
 SCF Done:  E(UB3LYP) =  -379.724206129     A.U. after   23 cycles
            NFock= 23  Conv=0.32D-08     -V/T= 2.0089
 <Sx>= 0.0000 <Sy>= 0.0000 <Sz>= 0.5000 <S**2>= 0.7570 S= 0.5035
 <L.S>= 0.000000000000E+00
 Annihilation of the first spin contaminant:
 S**2 before annihilation     0.7570,   after     0.7500
 Calling FoFJK, ICntrl=      2127 FMM=F ISym2X=0 I1Cent= 0 IOpClX= 1 NMat=1 NMatS=1 NMatT=0.
 ***** Axes restored to original set *****
 -------------------------------------------------------------------
 Center     Atomic                   Forces (Hartrees/Bohr)
 Number     Number              X              Y              Z
 -------------------------------------------------------------------
      1        6          -0.005449720    0.002025692    0.008008856
      2        6           0.001793696    0.017927939   -0.079623093
      3        1           0.000301043   -0.000763065    0.005533685
      4        1           0.021094322    0.011568855    0.023442778
      5        8           0.012780167   -0.020138933    0.055960979
      6        1          -0.025710831   -0.004653922    0.039842496
      7        8           0.027183415   -0.006398430   -0.043326037
      8        1           0.006555197    0.013155386    0.021612531
      9        8          -0.035387127   -0.024605166   -0.027070503
     10        8          -0.000367944    0.012389830    0.024655410
     11        1          -0.002792219   -0.000508187   -0.029037101
 -------------------------------------------------------------------
 Cartesian Forces:  Max     0.079623093 RMS     0.025486849

 GradGradGradGradGradGradGradGradGradGradGradGradGradGradGradGradGradGrad
 Berny optimization.
 FormGI is forming the generalized inverse of G from B-inverse, IUseBI=4.
 Internal  Forces:  Max     0.097212830 RMS     0.026132619
 Search for a saddle point.
 Step number   4 out of a maximum of  100
 All quantities printed in internal units (Hartrees-Bohrs-Radians)
 Swapping is turned off.
 Update second derivatives using D2CorX and points    3    4
 ITU=  0  0  0  0
     Eigenvalues ---   -0.18834   0.00233   0.00465   0.01524   0.02088
     Eigenvalues ---    0.02378   0.02563   0.05167   0.14137   0.15979
     Eigenvalues ---    0.16000   0.16137   0.17780   0.20575   0.23012
     Eigenvalues ---    0.26518   0.30657   0.31609   0.32976   0.33245
     Eigenvalues ---    0.34664   0.34853   0.36793   0.38156   0.46122
     Eigenvalues ---    0.54776   1.06415
 Eigenvectors required to have negative eigenvalues:
                          D10       A10       D6        D5        A5
   1                   -0.92609  -0.18150  -0.14475  -0.13209  -0.12693
                          A6        A8        R3        R10       R6
   1                    0.10704   0.09177  -0.08479   0.08348  -0.06983
 RFO step:  Lambda0=4.769606374D-03 Lambda=-1.06954081D-01.
 Linear search not attempted -- option 19 set.
 Maximum step size (   0.300) exceeded in Quadratic search.
    -- Step size scaled by   0.449
 Iteration  1 RMS(Cart)=  0.20344671 RMS(Int)=  0.01789744
 Iteration  2 RMS(Cart)=  0.02995696 RMS(Int)=  0.00038354
 Iteration  3 RMS(Cart)=  0.00049203 RMS(Int)=  0.00017071
 Iteration  4 RMS(Cart)=  0.00000026 RMS(Int)=  0.00017071
 Variable       Old X    -DE/DX   Delta X   Delta X   Delta X     New X
                                 (Linear)    (Quad)   (Total)
    R1        2.55644  -0.01227   0.00000  -0.01176  -0.01176   2.54468
    R2        2.05680  -0.00123   0.00000  -0.00399  -0.00399   2.05281
    R3        2.24496   0.01642   0.00000  -0.00452  -0.00452   2.24044
    R4        2.57466  -0.02768   0.00000  -0.02757  -0.02757   2.54709
    R5        2.07785  -0.00411   0.00000  -0.01170  -0.01170   2.06615
    R6        2.29778   0.04998   0.00000   0.08642   0.08642   2.38420
    R7        2.83194  -0.02405   0.00000  -0.05440  -0.05440   2.77754
    R8        1.91603  -0.02579   0.00000  -0.02912  -0.02912   1.88690
    R9        2.71350  -0.01126   0.00000  -0.02851  -0.02851   2.68499
   R10        1.91621  -0.02810   0.00000  -0.02447  -0.02447   1.89174
    A1        2.15919  -0.00039   0.00000  -0.00249  -0.00250   2.15669
    A2        2.19146  -0.00976   0.00000  -0.02813  -0.02814   2.16332
    A3        1.92837   0.01015   0.00000   0.03018   0.03018   1.95854
    A4        2.31871  -0.00758   0.00000  -0.00555  -0.00556   2.31315
    A5        1.74102   0.05279   0.00000   0.11494   0.11494   1.85596
    A6        2.21879  -0.04506   0.00000  -0.10825  -0.10830   2.11049
    A7        2.84446   0.00312   0.00000  -0.01981  -0.01981   2.82465
    A8        2.38389  -0.09721   0.00000  -0.21803  -0.21803   2.16586
    A9        1.84226  -0.00627   0.00000  -0.00420  -0.00420   1.83805
   A10        1.69320   0.02760   0.00000   0.01623   0.01623   1.70943
   A11        1.73679   0.01464   0.00000   0.03013   0.03013   1.76692
    D1       -3.12681  -0.00308   0.00000  -0.02238  -0.02269   3.13368
    D2       -0.08655  -0.00315   0.00000  -0.01494  -0.01466  -0.10121
    D3       -0.09269  -0.00254   0.00000  -0.02632  -0.02660  -0.11930
    D4        2.94757  -0.00261   0.00000  -0.01889  -0.01857   2.92900
    D5       -0.55155  -0.00701   0.00000  -0.07118  -0.07114  -0.62269
    D6        2.49464  -0.00692   0.00000  -0.07592  -0.07596   2.41869
    D7       -0.02294  -0.00304   0.00000  -0.03816  -0.03870  -0.06164
    D8       -3.03916  -0.00838   0.00000  -0.06020  -0.05966  -3.09883
    D9       -0.91437  -0.01404   0.00000  -0.11361  -0.11361  -1.02798
   D10        0.76860  -0.00490   0.00000  -0.12082  -0.12082   0.64777
   D11        0.84655   0.00349   0.00000  -0.00821  -0.00821   0.83834
         Item               Value     Threshold  Converged?
 Maximum Force            0.097213     0.000450     NO 
 RMS     Force            0.026133     0.000300     NO 
 Maximum Displacement     0.634972     0.001800     NO 
 RMS     Displacement     0.222156     0.001200     NO 
 Predicted change in Energy=-4.253660D-02
 GradGradGradGradGradGradGradGradGradGradGradGradGradGradGradGradGradGrad

                          Input orientation:                          
 ---------------------------------------------------------------------
 Center     Atomic      Atomic             Coordinates (Angstroms)
 Number     Number       Type             X           Y           Z
 ---------------------------------------------------------------------
      1          6           0      -31.145620  -13.815783   -3.478439
      2          6           0      -31.509190  -14.080726   -2.209221
      3          1           0      -30.116809  -13.840829   -3.826239
      4          1           0      -31.913800  -13.636628   -4.363551
      5          8           0      -32.705358  -14.095237   -1.588165
      6          1           0      -30.603565  -14.408996   -1.692003
      7          8           0      -33.972317  -13.719278   -2.231447
      8          1           0      -33.904117  -14.060149   -3.167487
      9          8           0      -32.932614  -13.723298   -5.102677
     10          8           0      -32.829030  -15.104679   -5.418625
     11          1           0      -32.681379  -15.501707   -4.511595
 ---------------------------------------------------------------------
                    Distance matrix (angstroms):
                    1          2          3          4          5
     1  C    0.000000
     2  C    1.346586   0.000000
     3  H    1.086299   2.147330   0.000000
     4  H    1.185588   2.236530   1.886685   0.000000
     5  O    2.466579   1.347865   3.431368   2.922268   0.000000
     6  H    1.958847   1.093359   2.261573   3.074156   2.127619
     7  O    3.091038   2.489605   4.174096   2.964825   1.469810
     8  H    2.786702   2.579606   3.850423   2.360360   1.983056
     9  O    2.416619   3.244376   3.093843   1.261666   3.541437
    10  O    2.873924   3.618112   3.389565   2.026327   3.963167
    11  H    2.503658   2.948583   3.131334   2.022279   3.244253
                    6          7          8          9         10
     6  H    0.000000
     7  O    3.480690   0.000000
     8  H    3.632133   0.998506   0.000000
     9  O    4.186568   3.053679   2.191403   0.000000
    10  O    4.395951   3.658490   2.704530   1.420833   0.000000
    11  H    3.668983   3.169014   2.319441   1.890829   1.001067
                   11
    11  H    0.000000
 Stoichiometry    C2H5O4(2)
 Framework group  C1[X(C2H5O4)]
 Deg. of freedom    27
 Full point group                 C1      NOp   1
 Largest Abelian subgroup         C1      NOp   1
 Largest concise Abelian subgroup C1      NOp   1
                         Standard orientation:                         
 ---------------------------------------------------------------------
 Center     Atomic      Atomic             Coordinates (Angstroms)
 Number     Number       Type             X           Y           Z
 ---------------------------------------------------------------------
      1          6           0       -0.021142    1.393091   -0.339288
      2          6           0       -1.218317    0.990538    0.127632
      3          1           0        0.285901    2.434006   -0.386910
      4          1           0        0.854465    0.653159   -0.641665
      5          8           0       -1.782359   -0.226450    0.260056
      6          1           0       -1.712917    1.884431    0.517195
      7          8           0       -1.156680   -1.477939   -0.190105
      8          1           0       -0.182303   -1.368357   -0.001441
      9          8           0        1.637239   -0.336238   -0.654315
     10          8           0        2.160560   -0.189360    0.658441
     11          1           0        1.321522   -0.065119    1.190150
 ---------------------------------------------------------------------
 Rotational constants (GHZ):           4.8503563           2.1742979           1.6954542
 Standard basis: 6-31G(d) (6D, 7F)
 There are   100 symmetry adapted cartesian basis functions of A   symmetry.
 There are   100 symmetry adapted basis functions of A   symmetry.
   100 basis functions,   188 primitive gaussians,   100 cartesian basis functions
    25 alpha electrons       24 beta electrons
       nuclear repulsion energy       238.3264556265 Hartrees.
 NAtoms=   11 NActive=   11 NUniq=   11 SFac= 1.00D+00 NAtFMM=   60 NAOKFM=F Big=F
 Integral buffers will be    131072 words long.
 Raffenetti 2 integral format.
 Two-electron integral symmetry is turned on.
 One-electron integrals computed using PRISM.
 NBasis=   100 RedAO= T EigKep=  4.70D-03  NBF=   100
 NBsUse=   100 1.00D-06 EigRej= -1.00D+00 NBFU=   100
 Initial guess from the checkpoint file:  "/scratch/dinius.ab/QMscratch/Gau-18654.chk"
 B after Tr=    -0.000000   -0.000000   -0.000000
         Rot=    0.997853    0.029315   -0.011147   -0.057494 Ang=   7.51 deg.
 Initial guess <Sx>= 0.0000 <Sy>= 0.0000 <Sz>= 0.5000 <S**2>= 0.7571 S= 0.5035
 ExpMin= 1.61D-01 ExpMax= 5.48D+03 ExpMxC= 8.25D+02 IAcc=2 IRadAn=         4 AccDes= 0.00D+00
 Harris functional with IExCor=  402 and IRadAn=       4 diagonalized for initial guess.
 HarFok:  IExCor=  402 AccDes= 0.00D+00 IRadAn=         4 IDoV= 1 UseB2=F ITyADJ=14
 ICtDFT=  3500011 ScaDFX=  1.000000  1.000000  1.000000  1.000000
 FoFCou: FMM=F IPFlag=           0 FMFlag=      100000 FMFlg1=           0
         NFxFlg=           0 DoJE=T BraDBF=F KetDBF=T FulRan=T
         wScrn=  0.000000 ICntrl=       500 IOpCl=  0 I1Cent=   200000004 NGrid=           0
         NMat0=    1 NMatS0=      1 NMatT0=    0 NMatD0=    1 NMtDS0=    0 NMtDT0=    0
 Petite list used in FoFCou.
 Keep R1 and R2 ints in memory in canonical form, NReq=26433820.
 Requested convergence on RMS density matrix=1.00D-08 within 128 cycles.
 Requested convergence on MAX density matrix=1.00D-06.
 Requested convergence on             energy=1.00D-06.
 No special actions if energy rises.
 Integral accuracy reduced to 1.0D-05 until final iterations.
 Initial convergence to 1.0D-05 achieved.  Increase integral accuracy.
 SCF Done:  E(UB3LYP) =  -379.764990252     A.U. after   21 cycles
            NFock= 21  Conv=0.81D-08     -V/T= 2.0087
 <Sx>= 0.0000 <Sy>= 0.0000 <Sz>= 0.5000 <S**2>= 0.7565 S= 0.5032
 <L.S>= 0.000000000000E+00
 Annihilation of the first spin contaminant:
 S**2 before annihilation     0.7565,   after     0.7500
 Calling FoFJK, ICntrl=      2127 FMM=F ISym2X=0 I1Cent= 0 IOpClX= 1 NMat=1 NMatS=1 NMatT=0.
 ***** Axes restored to original set *****
 -------------------------------------------------------------------
 Center     Atomic                   Forces (Hartrees/Bohr)
 Number     Number              X              Y              Z
 -------------------------------------------------------------------
      1        6          -0.008765860    0.001121697   -0.002801849
      2        6           0.010441740    0.011721775   -0.049306059
[...]
     6  H    2.144305   1.087628   2.476137   3.105926   1.986128
     7  O    2.736581   2.323157   3.818813   2.461628   1.443669
     8  H    2.784185   2.566480   3.829514   2.398491   1.899254
     9  O    3.620450   4.469440   4.252137   2.537706   4.555710
    10  O    4.155121   5.200759   4.531423   3.144073   5.502397
    11  H    5.037943   6.081873   5.395140   4.008235   6.328985
                    6          7          8          9         10
     6  H    0.000000
     7  O    3.253412   0.000000
     8  H    3.517277   0.978212   0.000000
     9  O    5.537983   3.449808   3.202656   0.000000
    10  O    6.210155   4.548704   4.131429   1.331606   0.000000
    11  H    7.104536   5.277660   4.922500   1.849002   0.983922
                   11
    11  H    0.000000
 Stoichiometry    C2H5O4(2)
 Framework group  C1[X(C2H5O4)]
 Deg. of freedom    27
 Full point group                 C1      NOp   1
 Largest Abelian subgroup         C1      NOp   1
 Largest concise Abelian subgroup C1      NOp   1
                         Standard orientation:                         
 ---------------------------------------------------------------------
 Center     Atomic      Atomic             Coordinates (Angstroms)
 Number     Number       Type             X           Y           Z
 ---------------------------------------------------------------------
      1          6           0       -0.821966    1.388903    0.105241
      2          6           0       -2.000155    0.780448   -0.009868
      3          1           0       -0.789136    2.471263    0.143966
      4          1           0        0.105465    0.833543    0.166739
      5          8           0       -2.256486   -0.564264   -0.101042
      6          1           0       -2.956596    1.294193   -0.074845
      7          8           0       -1.050128   -1.337959    0.072962
      8          1           0       -0.623960   -1.235996   -0.801613
      9          8           0        2.279615   -0.467425    0.309945
     10          8           0        3.171837    0.314437   -0.294872
     11          1           0        4.038248    0.062583    0.097562
 ---------------------------------------------------------------------
 Rotational constants (GHZ):           6.0758677           1.1764896           1.0012296

 **********************************************************************

            Population analysis using the SCF density.

 **********************************************************************

 Orbital symmetries:
 Alpha Orbitals:
       Occupied  (A) (A) (A) (A) (A) (A) (A) (A) (A) (A) (A) (A)
                 (A) (A) (A) (A) (A) (A) (A) (A) (A) (A) (A) (A)
                 (A)
       Virtual   (A) (A) (A) (A) (A) (A) (A) (A) (A) (A) (A) (A)
                 (A) (A) (A) (A) (A) (A) (A) (A) (A) (A) (A) (A)
                 (A) (A) (A) (A) (A) (A) (A) (A) (A) (A) (A) (A)
                 (A) (A) (A) (A) (A) (A) (A) (A) (A) (A) (A) (A)
                 (A) (A) (A) (A) (A) (A) (A) (A) (A) (A) (A) (A)
                 (A) (A) (A) (A) (A) (A) (A) (A) (A) (A) (A) (A)
                 (A) (A) (A)
 Beta  Orbitals:
       Occupied  (A) (A) (A) (A) (A) (A) (A) (A) (A) (A) (A) (A)
                 (A) (A) (A) (A) (A) (A) (A) (A) (A) (A) (A) (A)
       Virtual   (A) (A) (A) (A) (A) (A) (A) (A) (A) (A) (A) (A)
                 (A) (A) (A) (A) (A) (A) (A) (A) (A) (A) (A) (A)
                 (A) (A) (A) (A) (A) (A) (A) (A) (A) (A) (A) (A)
                 (A) (A) (A) (A) (A) (A) (A) (A) (A) (A) (A) (A)
                 (A) (A) (A) (A) (A) (A) (A) (A) (A) (A) (A) (A)
                 (A) (A) (A) (A) (A) (A) (A) (A) (A) (A) (A) (A)
                 (A) (A) (A) (A)
 The electronic state is 2-A.
 Alpha  occ. eigenvalues --  -19.28555 -19.24629 -19.22420 -19.20728 -10.23744
 Alpha  occ. eigenvalues --  -10.16508  -1.20562  -1.13165  -0.92518  -0.88167
 Alpha  occ. eigenvalues --   -0.73830  -0.59756  -0.57158  -0.51217  -0.50029
 Alpha  occ. eigenvalues --   -0.48797  -0.48762  -0.45944  -0.38993  -0.37671
 Alpha  occ. eigenvalues --   -0.35300  -0.31008  -0.30514  -0.29465  -0.22763
 Alpha virt. eigenvalues --    0.01986   0.03162   0.04463   0.09052   0.10531
 Alpha virt. eigenvalues --    0.12851   0.17189   0.19088   0.28397   0.36285
 Alpha virt. eigenvalues --    0.50893   0.55029   0.60385   0.64051   0.64705
 Alpha virt. eigenvalues --    0.67994   0.71424   0.71728   0.77348   0.78241
 Alpha virt. eigenvalues --    0.79984   0.82998   0.85437   0.87259   0.89373
 Alpha virt. eigenvalues --    0.90901   0.91749   0.93026   1.00006   1.01712
 Alpha virt. eigenvalues --    1.04745   1.05477   1.09318   1.15088   1.19502
 Alpha virt. eigenvalues --    1.23085   1.29020   1.34264   1.42359   1.46091
 Alpha virt. eigenvalues --    1.46234   1.51119   1.56199   1.56649   1.60029
 Alpha virt. eigenvalues --    1.70165   1.71008   1.75420   1.77376   1.87280
 Alpha virt. eigenvalues --    1.89208   1.94102   2.00493   2.09232   2.14872
 Alpha virt. eigenvalues --    2.20838   2.25344   2.32043   2.41202   2.42314
 Alpha virt. eigenvalues --    2.42759   2.43972   2.49676   2.55200   2.65618
 Alpha virt. eigenvalues --    2.74162   2.86797   2.99259   3.06162   3.33081
 Alpha virt. eigenvalues --    3.53355   3.60072   3.93101   4.14859   4.33788
  Beta  occ. eigenvalues --  -19.27703 -19.22630 -19.22420 -19.20728 -10.23744
  Beta  occ. eigenvalues --  -10.16507  -1.17838  -1.13165  -0.92518  -0.83997
  Beta  occ. eigenvalues --   -0.73828  -0.59754  -0.55651  -0.51185  -0.48791
  Beta  occ. eigenvalues --   -0.47277  -0.45904  -0.42121  -0.38991  -0.37642
  Beta  occ. eigenvalues --   -0.35298  -0.29539  -0.28528  -0.22763
  Beta virt. eigenvalues --   -0.12610   0.02009   0.03630   0.04467   0.09192
  Beta virt. eigenvalues --    0.12233   0.12981   0.17275   0.19145   0.28502
  Beta virt. eigenvalues --    0.36290   0.50896   0.55030   0.60402   0.64062
  Beta virt. eigenvalues --    0.64708   0.68028   0.72012   0.72261   0.78214
  Beta virt. eigenvalues --    0.78902   0.82685   0.83601   0.85556   0.87314
  Beta virt. eigenvalues --    0.89845   0.91664   0.93763   0.96011   1.00284
  Beta virt. eigenvalues --    1.01948   1.05072   1.05909   1.09384   1.15096
  Beta virt. eigenvalues --    1.20335   1.23101   1.29415   1.35177   1.42445
  Beta virt. eigenvalues --    1.46101   1.49014   1.51999   1.56321   1.57081
  Beta virt. eigenvalues --    1.61668   1.70176   1.71030   1.77311   1.80137
  Beta virt. eigenvalues --    1.89177   1.91119   1.94137   2.00522   2.09237
  Beta virt. eigenvalues --    2.16641   2.20839   2.25347   2.32044   2.42361
  Beta virt. eigenvalues --    2.43021   2.43994   2.46415   2.49685   2.55201
  Beta virt. eigenvalues --    2.65622   2.74169   2.88239   2.99261   3.06208
  Beta virt. eigenvalues --    3.35400   3.53495   3.62004   3.93102   4.14881
  Beta virt. eigenvalues --    4.33796
          Condensed to atoms (all electrons):
               1          2          3          4          5          6
     1  C    5.141983   0.635254   0.361657   0.353203  -0.038980  -0.048730
     2  C    0.635254   4.678068  -0.021099  -0.032462   0.254670   0.372762
     3  H    0.361657  -0.021099   0.552575  -0.032177   0.002520  -0.004275
     4  H    0.353203  -0.032462  -0.032177   0.515462  -0.008296   0.004388
     5  O   -0.038980   0.254670   0.002520  -0.008296   8.047337  -0.043855
     6  H   -0.048730   0.372762  -0.004275   0.004388  -0.043855   0.563216
     7  O   -0.000259  -0.040315   0.000478   0.011455   0.076615   0.003781
     8  H    0.005219  -0.001525  -0.000132   0.000124  -0.021232  -0.000226
     9  O   -0.004922   0.000018   0.000005   0.017333   0.000006  -0.000000
    10  O    0.000242   0.000004  -0.000006  -0.000916  -0.000000   0.000000
    11  H   -0.000027  -0.000000   0.000000   0.000169   0.000000  -0.000000
               7          8          9         10         11
     1  C   -0.000259   0.005219  -0.004922   0.000242  -0.000027
     2  C   -0.040315  -0.001525   0.000018   0.000004  -0.000000
     3  H    0.000478  -0.000132   0.000005  -0.000006   0.000000
     4  H    0.011455   0.000124   0.017333  -0.000916   0.000169
     5  O    0.076615  -0.021232   0.000006  -0.000000   0.000000
     6  H    0.003781  -0.000226  -0.000000   0.000000  -0.000000
     7  O    8.119892   0.208351   0.000208   0.000009  -0.000000
     8  H    0.208351   0.393057   0.001409  -0.000050   0.000005
     9  O    0.000208   0.001409   8.087383   0.077777  -0.033071
    10  O    0.000009  -0.000050   0.077777   7.972560   0.219110
    11  H   -0.000000   0.000005  -0.033071   0.219110   0.380029
          Atomic-Atomic Spin Densities.
               1          2          3          4          5          6
     1  C   -0.001527   0.000165  -0.000050   0.001941   0.000015   0.000018
     2  C    0.000165  -0.000009   0.000021  -0.000086  -0.000015   0.000002
     3  H   -0.000050   0.000021  -0.000034   0.000062  -0.000001   0.000003
     4  H    0.001941  -0.000086   0.000062  -0.002452  -0.000018  -0.000002
     5  O    0.000015  -0.000015  -0.000001  -0.000018   0.000016  -0.000003
     6  H    0.000018   0.000002   0.000003  -0.000002  -0.000003   0.000014
     7  O   -0.000126   0.000039   0.000000   0.000129   0.000038  -0.000003
     8  H    0.000117  -0.000025  -0.000001  -0.000111   0.000001   0.000004
     9  O    0.000196  -0.000000   0.000003  -0.001162  -0.000000  -0.000000
    10  O    0.000044  -0.000001   0.000001  -0.000143   0.000000   0.000000
    11  H    0.000003   0.000000  -0.000000  -0.000021  -0.000000   0.000000
               7          8          9         10         11
     1  C   -0.000126   0.000117   0.000196   0.000044   0.000003
     2  C    0.000039  -0.000025  -0.000000  -0.000001   0.000000
     3  H    0.000000  -0.000001   0.000003   0.000001  -0.000000
     4  H    0.000129  -0.000111  -0.001162  -0.000143  -0.000021
     5  O    0.000038   0.000001  -0.000000   0.000000  -0.000000
     6  H   -0.000003   0.000004  -0.000000   0.000000   0.000000
     7  O   -0.000127   0.000078   0.000008   0.000000   0.000000
     8  H    0.000078  -0.000133  -0.000010  -0.000006  -0.000001
     9  O    0.000008  -0.000010   0.854165  -0.113870   0.001411
    10  O    0.000000  -0.000006  -0.113870   0.386991  -0.001232
    11  H    0.000000  -0.000001   0.001411  -0.001232  -0.011723
 Mulliken charges and spin densities:
               1          2
     1  C   -0.404640   0.000797
     2  C    0.154625   0.000091
     3  H    0.140454   0.000003
     4  H    0.171717  -0.001865
     5  O   -0.268784   0.000032
     6  H    0.152939   0.000032
     7  O   -0.380216   0.000036
     8  H    0.415000  -0.000087
     9  O   -0.146146   0.740740
    10  O   -0.268732   0.271784
    11  H    0.433784  -0.011562
 Sum of Mulliken charges =  -0.00000   1.00000
 Mulliken charges and spin densities with hydrogens summed into heavy atoms:
               1          2
     1  C   -0.092469  -0.001065
     2  C    0.307564   0.000122
     5  O   -0.268784   0.000032
     7  O    0.034784  -0.000051
     9  O   -0.146146   0.740740
    10  O    0.165052   0.260222
 Electronic spatial extent (au):  <R**2>=           1039.9967
 Charge=             -0.0000 electrons
 Dipole moment (field-independent basis, Debye):
    X=              3.3651    Y=              1.0378    Z=             -1.0658  Tot=              3.6793
 Quadrupole moment (field-independent basis, Debye-Ang):
   XX=            -18.9046   YY=            -34.7415   ZZ=            -35.1147
   XY=             -4.0044   XZ=              2.2182   YZ=              2.4720
 Traceless Quadrupole moment (field-independent basis, Debye-Ang):
   XX=             10.6823   YY=             -5.1546   ZZ=             -5.5278
   XY=             -4.0044   XZ=              2.2182   YZ=              2.4720
 Octapole moment (field-independent basis, Debye-Ang**2):
  XXX=             91.1757  YYY=             -3.8168  ZZZ=             -1.8630  XYY=              4.0092
  XXY=              6.8494  XXZ=              5.4499  XZZ=              4.8794  YZZ=             -6.5515
  YYZ=             -2.4548  XYZ=              0.9414
 Hexadecapole moment (field-independent basis, Debye-Ang**3):
 XXXX=           -533.0463 YYYY=           -217.2954 ZZZZ=            -37.5167 XXXY=            -20.7022
 XXXZ=             23.7100 YYYX=              0.9082 YYYZ=              4.0349 ZZZX=              2.0186
 ZZZY=              1.0245 XXYY=           -193.9539 XXZZ=           -166.1981 YYZZ=            -45.1714
 XXYZ=              3.2350 YYXZ=              1.0530 ZZXY=              7.0679
 N-N= 2.177380292115D+02 E-N=-1.328840437129D+03  KE= 3.766121582553D+02
                          Isotropic Fermi Contact Couplings
        Atom                 a.u.       MegaHertz       Gauss      10(-4) cm-1
     1  C(13)             -0.00015      -0.16348      -0.05834      -0.05453
     2  C(13)              0.00000       0.00147       0.00053       0.00049
     3  H(1)               0.00001       0.02507       0.00895       0.00836
     4  H(1)               0.00005       0.22481       0.08022       0.07499
     5  O(17)              0.00004      -0.02249      -0.00802      -0.00750
     6  H(1)               0.00002       0.10276       0.03667       0.03428
     7  O(17)             -0.00021       0.12953       0.04622       0.04321
     8  H(1)               0.00000       0.01725       0.00615       0.00575
     9  O(17)              0.08755     -53.06970     -18.93659     -17.70215
    10  O(17)              0.05290     -32.06537     -11.44172     -10.69586
    11  H(1)              -0.00589     -26.31194      -9.38875      -8.77672
 --------------------------------------------------------
       Center         ----  Spin Dipole Couplings  ----
                      3XX-RR        3YY-RR        3ZZ-RR
 --------------------------------------------------------
     1   Atom        0.003847     -0.001088     -0.002759
     2   Atom        0.002656     -0.001245     -0.001411
     3   Atom        0.001341      0.000457     -0.001798
     4   Atom        0.010074     -0.002879     -0.007194
     5   Atom        0.002268     -0.001337     -0.000931
     6   Atom        0.001378     -0.000597     -0.000781
     7   Atom        0.005302     -0.002822     -0.002481
     8   Atom        0.005677     -0.003062     -0.002615
     9   Atom       -1.438518      0.636221      0.802297
    10   Atom       -0.628620      0.275598      0.353022
    11   Atom        0.055124     -0.031346     -0.023778
 --------------------------------------------------------
                        XY            XZ            YZ
 --------------------------------------------------------
     1   Atom       -0.003546      0.000878     -0.000504
     2   Atom       -0.000959      0.000117     -0.000121
     3   Atom       -0.002576      0.000104     -0.000110
     4   Atom       -0.008713      0.001311     -0.000693
     5   Atom        0.000028      0.000043      0.000278
     6   Atom       -0.000648      0.000131     -0.000047
     7   Atom        0.001994      0.000244      0.000253
     8   Atom        0.002434      0.003081      0.000839
     9   Atom       -0.378816     -0.385989      2.213537
    10   Atom       -0.185333     -0.163445      1.025509
    11   Atom       -0.015163      0.028803      0.000339
 --------------------------------------------------------


 ---------------------------------------------------------------------------------
              Anisotropic Spin Dipole Couplings in Principal Axis System
 ---------------------------------------------------------------------------------

       Atom             a.u.   MegaHertz   Gauss  10(-4) cm-1        Axes

              Baa    -0.0030    -0.397    -0.142    -0.132  0.3716  0.8207  0.4340
     1 C(13)  Bbb    -0.0029    -0.384    -0.137    -0.128 -0.2959 -0.3384  0.8933
              Bcc     0.0058     0.781     0.279     0.260  0.8800 -0.4603  0.1171
 
              Baa    -0.0015    -0.206    -0.074    -0.069  0.1623  0.7825  0.6012
     2 C(13)  Bbb    -0.0013    -0.181    -0.064    -0.060 -0.1622 -0.5798  0.7984
              Bcc     0.0029     0.387     0.138     0.129  0.9733 -0.2270  0.0328
 
              Baa    -0.0018    -0.963    -0.344    -0.321  0.0980  0.1593  0.9824
     3 H(1)   Bbb    -0.0017    -0.913    -0.326    -0.305  0.6375  0.7479 -0.1848
              Bcc     0.0035     1.876     0.669     0.626  0.7642 -0.6444  0.0283
 
              Baa    -0.0073    -3.902    -1.392    -1.301  0.1693  0.4683  0.8672
     4 H(1)   Bbb    -0.0072    -3.864    -1.379    -1.289  0.4205  0.7615 -0.4933
              Bcc     0.0146     7.766     2.771     2.590  0.8913 -0.4482  0.0680
 
              Baa    -0.0015     0.107     0.038     0.036 -0.0016  0.8918 -0.4525
     5 O(17)  Bbb    -0.0008     0.057     0.020     0.019 -0.0166  0.4524  0.8916
              Bcc     0.0023    -0.164    -0.059    -0.055  0.9999  0.0089  0.0141
 
              Baa    -0.0008    -0.426    -0.152    -0.142  0.1669  0.7006  0.6938
     6 H(1)   Bbb    -0.0008    -0.417    -0.149    -0.139 -0.2395 -0.6538  0.7178
              Bcc     0.0016     0.843     0.301     0.281  0.9564 -0.2859  0.0587
 
              Baa    -0.0033     0.241     0.086     0.080 -0.2134  0.9513 -0.2226
     7 O(17)  Bbb    -0.0024     0.177     0.063     0.059 -0.0844  0.2090  0.9743
              Bcc     0.0058    -0.418    -0.149    -0.139  0.9733  0.2267  0.0357
 
              Baa    -0.0037    -1.981    -0.707    -0.661 -0.0958  0.9021 -0.4208
     8 H(1)   Bbb    -0.0036    -1.933    -0.690    -0.645 -0.3768  0.3584  0.8541
              Bcc     0.0073     3.913     1.396     1.305  0.9213  0.2404  0.3056
 
              Baa    -1.5067   109.026    38.903    36.367  0.9012  0.3781 -0.2118
     9 O(17)  Bbb    -1.4935   108.069    38.562    36.048  0.4161 -0.6186  0.6664
              Bcc     3.0002  -217.095   -77.465   -72.415 -0.1209  0.6887  0.7149
 
              Baa    -0.7186    51.999    18.554    17.345  0.3152  0.7092 -0.6306
    10 O(17)  Bbb    -0.6523    47.198    16.841    15.743  0.9411 -0.1480  0.3040
              Bcc     1.3709   -99.197   -35.396   -33.088 -0.1223  0.6893  0.7141
 
              Baa    -0.0383   -20.425    -7.288    -6.813  0.3103  0.7094 -0.6328
    11 H(1)   Bbb    -0.0283   -15.118    -5.394    -5.043 -0.1210  0.6898  0.7138
              Bcc     0.0666    35.543    12.683    11.856  0.9429 -0.1449  0.2999
 

 ---------------------------------------------------------------------------------


 Test job not archived.
 1\1\GINC-C0165\FTS\UB3LYP\6-31G(d)\C2H5O4(2)\DINIUS.AB\24-Oct-2018\0\\
 #N B3LYP/6-31G(d) Opt=(TS,EstmFC,noeigentest,ModRedundant,maxcycles=20
 0) Test\\Title\\0,2\C,-31.0052530117,-14.168125886,-2.913846631\C,-31.
 3389865563,-13.6907384221,-1.7170511618\H,-29.9566911959,-14.276923684
 5,-3.164370698\H,-31.7514504601,-14.4563417422,-3.6435425534\O,-32.594
 3418604,-13.4535822209,-1.2169417033\H,-30.6269845368,-13.388613258,-0
 .9523887418\O,-33.614409562,-13.9155565852,-2.1281060858\H,-33.6146394
 344,-13.2039328371,-2.7992920408\O,-33.4998234031,-15.1311327764,-5.35
 46246004\O,-32.9382890073,-14.8484402978,-6.5284806045\H,-33.372930972
 1,-15.4539222896,-7.1708051792\\Version=EM64L-G16RevA.03\State=2-A\HF=
 -379.8336104\S2=0.752818\S2-1=0.\S2A=0.750005\RMSD=8.595e-09\RMSF=3.98
 1e-04\Dipole=0.1029699,0.0049235,-1.443855\Quadrupole=-1.9559245,-2.15
 51396,4.1110641,0.1441667,5.3980708,4.5212483\PG=C01 [X(C2H5O4)]\\@


 EXPERIENCE IS A WONDERFUL THING.  IT ENABLES
 YOU TO RECOGNIZE A MISTAKE WHEN YOU MAKE IT AGAIN.
           - BACK OF A SUGAR PACKET
 Job cpu time:       0 days  1 hours 15 minutes 25.9 seconds.
 Elapsed time:       0 days  1 hours 15 minutes 48.5 seconds.
 File lengths (MBytes):  RWF=    272 Int=      0 D2E=      0 Chk=     32 Scr=     32
 Normal termination of Gaussian 16 at Wed Oct 24 17:40:12 2018.
