 Entering Gaussian System, Link 0=g16
 Input=../rxn938.com
 Output=../rxn938.log
 Initial command:
 /shared/centos7/gaussian/g16/l1.exe "/scratch/dinius.ab/QMscratch/Gau-20931.inp" -scrdir="/scratch/dinius.ab/QMscratch/"
 Entering Link 1 = /shared/centos7/gaussian/g16/l1.exe PID=     20932.
  
 Copyright (c) 1988,1990,1992,1993,1995,1998,2003,2009,2016,
            Gaussian, Inc.  All Rights Reserved.
  
 This is part of the Gaussian(R) 16 program.  It is based on
 the Gaussian(R) 09 system (copyright 2009, Gaussian, Inc.),
 the Gaussian(R) 03 system (copyright 2003, Gaussian, Inc.),
 the Gaussian(R) 98 system (copyright 1998, Gaussian, Inc.),
 the Gaussian(R) 94 system (copyright 1995, Gaussian, Inc.),
 the Gaussian 92(TM) system (copyright 1992, Gaussian, Inc.),
 the Gaussian 90(TM) system (copyright 1990, Gaussian, Inc.),
 the Gaussian 88(TM) system (copyright 1988, Gaussian, Inc.),
 the Gaussian 86(TM) system (copyright 1986, Carnegie Mellon
 University), and the Gaussian 82(TM) system (copyright 1983,
 Carnegie Mellon University). Gaussian is a federally registered
 trademark of Gaussian, Inc.
  
 This software contains proprietary and confidential information,
 including trade secrets, belonging to Gaussian, Inc.
  
 This software is provided under written license and may be
 used, copied, transmitted, or stored only in accord with that
 written license.
  
 The following legend is applicable only to US Government
 contracts under FAR:
  
                    RESTRICTED RIGHTS LEGEND
  
 Use, reproduction and disclosure by the US Government is
 subject to restrictions as set forth in subparagraphs (a)
 and (c) of the Commercial Computer Software - Restricted
 Rights clause in FAR 52.227-19.
  
 Gaussian, Inc.
 340 Quinnipiac St., Bldg. 40, Wallingford CT 06492
  
  
 ---------------------------------------------------------------
 Warning -- This program may not be used in any manner that
 competes with the business of Gaussian, Inc. or will provide
 assistance to any competitor of Gaussian, Inc.  The licensee
 of this program is prohibited from giving any competitor of
 Gaussian, Inc. access to this program.  By using this program,
 the user acknowledges that Gaussian, Inc. is engaged in the
 business of creating and licensing software in the field of
 computational chemistry and represents and warrants to the
 licensee that it is not a competitor of Gaussian, Inc. and that
 it will not use this program in any manner prohibited above.
 ---------------------------------------------------------------
  

 Cite this work as:
 Gaussian 16, Revision A.03,
 M. J. Frisch, G. W. Trucks, H. B. Schlegel, G. E. Scuseria, 
 M. A. Robb, J. R. Cheeseman, G. Scalmani, V. Barone, 
 G. A. Petersson, H. Nakatsuji, X. Li, M. Caricato, A. V. Marenich, 
 J. Bloino, B. G. Janesko, R. Gomperts, B. Mennucci, H. P. Hratchian, 
 J. V. Ortiz, A. F. Izmaylov, J. L. Sonnenberg, D. Williams-Young, 
 F. Ding, F. Lipparini, F. Egidi, J. Goings, B. Peng, A. Petrone, 
 T. Henderson, D. Ranasinghe, V. G. Zakrzewski, J. Gao, N. Rega, 
 G. Zheng, W. Liang, M. Hada, M. Ehara, K. Toyota, R. Fukuda, 
 J. Hasegawa, M. Ishida, T. Nakajima, Y. Honda, O. Kitao, H. Nakai, 
 T. Vreven, K. Throssell, J. A. Montgomery, Jr., J. E. Peralta, 
 F. Ogliaro, M. J. Bearpark, J. J. Heyd, E. N. Brothers, K. N. Kudin, 
 V. N. Staroverov, T. A. Keith, R. Kobayashi, J. Normand, 
 K. Raghavachari, A. P. Rendell, J. C. Burant, S. S. Iyengar, 
 J. Tomasi, M. Cossi, J. M. Millam, M. Klene, C. Adamo, R. Cammi, 
 J. W. Ochterski, R. L. Martin, K. Morokuma, O. Farkas, 
 J. B. Foresman, and D. J. Fox, Gaussian, Inc., Wallingford CT, 2016.
 
 ******************************************
 Gaussian 16:  EM64L-G16RevA.03 25-Dec-2016
                15-Oct-2018 
 ******************************************
 ----------------------------------------------
 #m062x/6-311+g(2df,2p) freq Opt=(TS, ModRedun)
 ----------------------------------------------
 1/5=1,18=120,26=3,38=1/1,3;
 2/9=110,12=2,17=6,18=5,40=1/2;
 3/5=4,6=6,7=214,11=2,25=1,30=1,71=1,74=-55/1,2,3;
 4//1;
 5/5=2,38=5/2;
 6/7=2,8=2,9=2,10=2,28=1/1;
 7//1,2,3,16;
 1/5=1,18=20,26=3/3(2);
 2/9=110/2;
 99//99;
 2/9=110/2;
 3/5=4,6=6,7=214,11=2,25=1,30=1,71=1,74=-55/1,2,3;
 4/5=5,16=3,69=1/1;
 5/5=2,38=5/2;
 7//1,2,3,16;
 1/5=1,18=20,26=3/3(-5);
 2/9=110/2;
 6/7=2,8=2,9=2,10=2,19=2,28=1/1;
 99/9=1/99;
 -----
 Title
 -----
 Symbolic Z-matrix:
 Charge =  0 Multiplicity = 2
 C                    -0.24383   8.46077   5.91817 
 C                     0.37061   7.21423   5.82516 
 C                    -0.595     9.15232   4.76244 
 H                    -0.44818   8.89254   6.88942 
 C                    -0.33441   8.6051    3.50415 
 H                    -1.07217   10.12097   4.84052 
 C                     0.64148   6.64702   4.56931 
 H                     0.63638   6.69273   6.73725 
 C                     0.29096   7.33974   3.3757 
 H                    -0.63282   9.19817   2.6561 
 C                     1.26125   5.39518   4.50302 
 C                     0.58557   6.73878   2.11267 
 C                     1.54623   4.81256   3.27436 
 H                     1.53014   4.86322   5.40832 
 C                     1.21939   5.46747   2.08079 
 H                     2.02985   3.84262   3.25852 
 C                     1.53121   4.85463   0.85555 
 C                     0.27787   7.3526    0.87929 
 C                     0.59501   6.73818  -0.33116 
 H                    -0.20614   8.3122    0.81099 
 C                     1.23547   5.4807   -0.37761 
 H                     0.3354    7.25263  -1.24743 
 H                     2.01929   3.88629   0.86849 
 C                     1.58385   4.83298  -1.73952 
 H                     1.81581   4.34104  -2.71257 
 H                     1.93603   3.88539  -1.29033 
 H                     0.51795   4.89548  -2.05802 
 O                     2.53922   5.84222  -2.00901 
 O                     2.05605   6.60362  -2.97906 
 H                     2.78914   6.65757  -3.64318 
 
 The following ModRedundant input section has been read:
 

 GradGradGradGradGradGradGradGradGradGradGradGradGradGradGradGradGradGrad
 Berny optimization.
 Initialization pass.
                           ----------------------------
                           !    Initial Parameters    !
                           ! (Angstroms and Degrees)  !
 --------------------------                            --------------------------
 ! Name  Definition              Value          Derivative Info.                !
 --------------------------------------------------------------------------------
 ! R1    R(1,2)                  1.3929         estimate D2E/DX2                !
 ! R2    R(1,3)                  1.3919         estimate D2E/DX2                !
 ! R3    R(1,4)                  1.0824         estimate D2E/DX2                !
 ! R4    R(2,7)                  1.4044         estimate D2E/DX2                !
 ! R5    R(2,8)                  1.0837         estimate D2E/DX2                !
 ! R6    R(3,5)                  1.3967         estimate D2E/DX2                !
 ! R7    R(3,6)                  1.0826         estimate D2E/DX2                !
 ! R8    R(5,9)                  1.4173         estimate D2E/DX2                !
 ! R9    R(5,10)                 1.077          estimate D2E/DX2                !
 ! R10   R(7,9)                  1.4239         estimate D2E/DX2                !
 ! R11   R(7,11)                 1.3984         estimate D2E/DX2                !
 ! R12   R(9,12)                 1.4294         estimate D2E/DX2                !
 ! R13   R(11,13)                1.3893         estimate D2E/DX2                !
 ! R14   R(11,14)                1.0839         estimate D2E/DX2                !
 ! R15   R(12,15)                1.4209         estimate D2E/DX2                !
 ! R16   R(12,18)                1.4116         estimate D2E/DX2                !
 ! R17   R(13,15)                1.4001         estimate D2E/DX2                !
 ! R18   R(13,16)                1.0839         estimate D2E/DX2                !
 ! R19   R(15,17)                1.405          estimate D2E/DX2                !
 ! R20   R(17,21)                1.4143         estimate D2E/DX2                !
 ! R21   R(17,23)                1.0845         estimate D2E/DX2                !
 ! R22   R(18,19)                1.394          estimate D2E/DX2                !
 ! R23   R(18,20)                1.0769         estimate D2E/DX2                !
 ! R24   R(19,21)                1.4119         estimate D2E/DX2                !
 ! R25   R(19,22)                1.0824         estimate D2E/DX2                !
 ! R26   R(21,24)                1.5478         estimate D2E/DX2                !
 ! R27   R(24,25)                1.1147         estimate D2E/DX2                !
 ! R28   R(24,26)                1.1062         estimate D2E/DX2                !
 ! R29   R(24,27)                1.1142         estimate D2E/DX2                !
 ! R30   R(24,28)                1.4156         estimate D2E/DX2                !
 ! R31   R(28,29)                1.3245         estimate D2E/DX2                !
 ! R32   R(29,30)                0.9906         estimate D2E/DX2                !
 ! A1    A(2,1,3)              120.0339         estimate D2E/DX2                !
 ! A2    A(2,1,4)              120.0143         estimate D2E/DX2                !
 ! A3    A(3,1,4)              119.9518         estimate D2E/DX2                !
 ! A4    A(1,2,7)              120.4151         estimate D2E/DX2                !
 ! A5    A(1,2,8)              118.8576         estimate D2E/DX2                !
 ! A6    A(7,2,8)              120.7273         estimate D2E/DX2                !
 ! A7    A(1,3,5)              120.4204         estimate D2E/DX2                !
 ! A8    A(1,3,6)              119.7268         estimate D2E/DX2                !
 ! A9    A(5,3,6)              119.8527         estimate D2E/DX2                !
 ! A10   A(3,5,9)              120.9162         estimate D2E/DX2                !
 ! A11   A(3,5,10)             116.2283         estimate D2E/DX2                !
 ! A12   A(9,5,10)             122.8554         estimate D2E/DX2                !
 ! A13   A(2,7,9)              120.3748         estimate D2E/DX2                !
 ! A14   A(2,7,11)             119.3026         estimate D2E/DX2                !
 ! A15   A(9,7,11)             120.3226         estimate D2E/DX2                !
 ! A16   A(5,9,7)              117.8395         estimate D2E/DX2                !
 ! A17   A(5,9,12)             123.1192         estimate D2E/DX2                !
 ! A18   A(7,9,12)             119.0409         estimate D2E/DX2                !
 ! A19   A(7,11,13)            120.5453         estimate D2E/DX2                !
 ! A20   A(7,11,14)            120.6429         estimate D2E/DX2                !
 ! A21   A(13,11,14)           118.8116         estimate D2E/DX2                !
 ! A22   A(9,12,15)            119.2044         estimate D2E/DX2                !
 ! A23   A(9,12,18)            122.9764         estimate D2E/DX2                !
 ! A24   A(15,12,18)           117.8191         estimate D2E/DX2                !
 ! A25   A(11,13,15)           120.6539         estimate D2E/DX2                !
 ! A26   A(11,13,16)           118.665          estimate D2E/DX2                !
 ! A27   A(15,13,16)           120.6807         estimate D2E/DX2                !
 ! A28   A(12,15,13)           120.2324         estimate D2E/DX2                !
 ! A29   A(12,15,17)           120.5858         estimate D2E/DX2                !
 ! A30   A(13,15,17)           119.1812         estimate D2E/DX2                !
 ! A31   A(15,17,21)           121.3919         estimate D2E/DX2                !
 ! A32   A(15,17,23)           118.6173         estimate D2E/DX2                !
 ! A33   A(21,17,23)           119.9868         estimate D2E/DX2                !
 ! A34   A(12,18,19)           121.1602         estimate D2E/DX2                !
 ! A35   A(12,18,20)           122.7409         estimate D2E/DX2                !
 ! A36   A(19,18,20)           116.0985         estimate D2E/DX2                !
 ! A37   A(18,19,21)           121.6209         estimate D2E/DX2                !
 ! A38   A(18,19,22)           118.0988         estimate D2E/DX2                !
 ! A39   A(21,19,22)           120.2803         estimate D2E/DX2                !
 ! A40   A(17,21,19)           117.4145         estimate D2E/DX2                !
 ! A41   A(17,21,24)           122.3376         estimate D2E/DX2                !
 ! A42   A(19,21,24)           120.2475         estimate D2E/DX2                !
 ! A43   A(21,24,26)            94.1768         estimate D2E/DX2                !
 ! A44   A(21,24,27)            90.7292         estimate D2E/DX2                !
 ! A45   A(21,24,28)            91.2068         estimate D2E/DX2                !
 ! A46   A(25,24,26)            84.8466         estimate D2E/DX2                !
 ! A47   A(25,24,27)            88.5272         estimate D2E/DX2                !
 ! A48   A(25,24,28)            90.4593         estimate D2E/DX2                !
 ! A49   A(26,24,27)           117.9484         estimate D2E/DX2                !
 ! A50   A(26,24,28)           118.2389         estimate D2E/DX2                !
 ! A51   A(27,24,28)           123.45           estimate D2E/DX2                !
 ! A52   A(24,28,29)           107.6428         estimate D2E/DX2                !
 ! A53   A(28,29,30)           104.6166         estimate D2E/DX2                !
 ! A54   L(21,24,25,26,-1)     179.0234         estimate D2E/DX2                !
 ! A55   L(21,24,25,26,-2)     178.6292         estimate D2E/DX2                !
 ! D1    D(3,1,2,7)              0.0691         estimate D2E/DX2                !
 ! D2    D(3,1,2,8)            179.9672         estimate D2E/DX2                !
 ! D3    D(4,1,2,7)           -179.9051         estimate D2E/DX2                !
 ! D4    D(4,1,2,8)             -0.007          estimate D2E/DX2                !
 ! D5    D(2,1,3,5)             -0.0527         estimate D2E/DX2                !
 ! D6    D(2,1,3,6)           -179.9867         estimate D2E/DX2                !
 ! D7    D(4,1,3,5)            179.9215         estimate D2E/DX2                !
 ! D8    D(4,1,3,6)             -0.0124         estimate D2E/DX2                !
 ! D9    D(1,2,7,9)             -0.0051         estimate D2E/DX2                !
 ! D10   D(1,2,7,11)           179.8937         estimate D2E/DX2                !
 ! D11   D(8,2,7,9)           -179.9012         estimate D2E/DX2                !
 ! D12   D(8,2,7,11)            -0.0024         estimate D2E/DX2                !
 ! D13   D(1,3,5,9)             -0.0282         estimate D2E/DX2                !
 ! D14   D(1,3,5,10)          -179.9143         estimate D2E/DX2                !
 ! D15   D(6,3,5,9)            179.9057         estimate D2E/DX2                !
 ! D16   D(6,3,5,10)             0.0196         estimate D2E/DX2                !
 ! D17   D(3,5,9,7)              0.0897         estimate D2E/DX2                !
 ! D18   D(3,5,9,12)          -179.6803         estimate D2E/DX2                !
 ! D19   D(10,5,9,7)           179.968          estimate D2E/DX2                !
 ! D20   D(10,5,9,12)            0.1981         estimate D2E/DX2                !
 ! D21   D(2,7,9,5)             -0.0729         estimate D2E/DX2                !
 ! D22   D(2,7,9,12)           179.7067         estimate D2E/DX2                !
 ! D23   D(11,7,9,5)          -179.9707         estimate D2E/DX2                !
 ! D24   D(11,7,9,12)           -0.1911         estimate D2E/DX2                !
 ! D25   D(2,7,11,13)         -179.7317         estimate D2E/DX2                !
 ! D26   D(2,7,11,14)            0.113          estimate D2E/DX2                !
 ! D27   D(9,7,11,13)            0.1672         estimate D2E/DX2                !
 ! D28   D(9,7,11,14)         -179.9882         estimate D2E/DX2                !
 ! D29   D(5,9,12,15)          179.7799         estimate D2E/DX2                !
 ! D30   D(5,9,12,18)           -0.0759         estimate D2E/DX2                !
 ! D31   D(7,9,12,15)            0.0126         estimate D2E/DX2                !
 ! D32   D(7,9,12,18)         -179.8432         estimate D2E/DX2                !
 ! D33   D(7,11,13,15)           0.0406         estimate D2E/DX2                !
 ! D34   D(7,11,13,16)         179.8212         estimate D2E/DX2                !
 ! D35   D(14,11,13,15)       -179.8069         estimate D2E/DX2                !
 ! D36   D(14,11,13,16)         -0.0263         estimate D2E/DX2                !
 ! D37   D(9,12,15,13)           0.1916         estimate D2E/DX2                !
 ! D38   D(9,12,15,17)        -179.528          estimate D2E/DX2                !
 ! D39   D(18,12,15,13)       -179.9452         estimate D2E/DX2                !
 ! D40   D(18,12,15,17)          0.3353         estimate D2E/DX2                !
 ! D41   D(9,12,18,19)         179.3238         estimate D2E/DX2                !
 ! D42   D(9,12,18,20)          -0.452          estimate D2E/DX2                !
 ! D43   D(15,12,18,19)         -0.5339         estimate D2E/DX2                !
 ! D44   D(15,12,18,20)        179.6903         estimate D2E/DX2                !
 ! D45   D(11,13,15,12)         -0.2213         estimate D2E/DX2                !
 ! D46   D(11,13,15,17)        179.5022         estimate D2E/DX2                !
 ! D47   D(16,13,15,12)       -179.9974         estimate D2E/DX2                !
 ! D48   D(16,13,15,17)         -0.2739         estimate D2E/DX2                !
 ! D49   D(12,15,17,21)          0.4207         estimate D2E/DX2                !
 ! D50   D(12,15,17,23)        179.7037         estimate D2E/DX2                !
 ! D51   D(13,15,17,21)       -179.3018         estimate D2E/DX2                !
 ! D52   D(13,15,17,23)         -0.0188         estimate D2E/DX2                !
 ! D53   D(15,17,21,19)         -0.956          estimate D2E/DX2                !
 ! D54   D(15,17,21,24)        179.2842         estimate D2E/DX2                !
 ! D55   D(23,17,21,19)        179.7707         estimate D2E/DX2                !
 ! D56   D(23,17,21,24)          0.0109         estimate D2E/DX2                !
 ! D57   D(12,18,19,21)         -0.0205         estimate D2E/DX2                !
 ! D58   D(12,18,19,22)        179.9313         estimate D2E/DX2                !
 ! D59   D(20,18,19,21)        179.7695         estimate D2E/DX2                !
 ! D60   D(20,18,19,22)         -0.2787         estimate D2E/DX2                !
 ! D61   D(18,19,21,17)          0.7599         estimate D2E/DX2                !
 ! D62   D(18,19,21,24)       -179.475          estimate D2E/DX2                !
 ! D63   D(22,19,21,17)       -179.1909         estimate D2E/DX2                !
 ! D64   D(22,19,21,24)          0.5742         estimate D2E/DX2                !
 ! D65   D(17,21,24,26)          5.4905         estimate D2E/DX2                !
 ! D66   D(17,21,24,27)        123.5827         estimate D2E/DX2                !
 ! D67   D(17,21,24,28)       -112.9374         estimate D2E/DX2                !
 ! D68   D(19,21,24,26)       -174.2627         estimate D2E/DX2                !
 ! D69   D(19,21,24,27)        -56.1705         estimate D2E/DX2                !
 ! D70   D(19,21,24,28)         67.3094         estimate D2E/DX2                !
 ! D71   D(21,24,28,29)       -109.3308         estimate D2E/DX2                !
 ! D72   D(25,24,28,29)         70.8792         estimate D2E/DX2                !
 ! D73   D(26,24,28,29)        155.275          estimate D2E/DX2                !
 ! D74   D(27,24,28,29)        -17.6591         estimate D2E/DX2                !
 ! D75   D(24,28,29,30)       -129.7296         estimate D2E/DX2                !
 --------------------------------------------------------------------------------
 Trust Radius=3.00D-01 FncErr=1.00D-07 GrdErr=1.00D-06 EigMax=2.50D+02 EigMin=1.00D-04
 Number of steps in this run=    172 maximum allowed number of steps=    180.
 Search for a saddle point of order  1.
 GradGradGradGradGradGradGradGradGradGradGradGradGradGradGradGradGradGrad

                          Input orientation:                          
 ---------------------------------------------------------------------
 Center     Atomic      Atomic             Coordinates (Angstroms)
 Number     Number       Type             X           Y           Z
 ---------------------------------------------------------------------
      1          6           0       -0.243830    8.460770    5.918170
      2          6           0        0.370610    7.214230    5.825160
      3          6           0       -0.595000    9.152320    4.762440
      4          1           0       -0.448180    8.892540    6.889420
      5          6           0       -0.334410    8.605100    3.504150
      6          1           0       -1.072170   10.120970    4.840520
      7          6           0        0.641480    6.647020    4.569310
      8          1           0        0.636380    6.692730    6.737250
      9          6           0        0.290960    7.339740    3.375700
     10          1           0       -0.632820    9.198170    2.656100
     11          6           0        1.261250    5.395180    4.503020
     12          6           0        0.585570    6.738780    2.112670
     13          6           0        1.546230    4.812560    3.274360
     14          1           0        1.530140    4.863220    5.408320
     15          6           0        1.219390    5.467470    2.080790
     16          1           0        2.029850    3.842620    3.258520
     17          6           0        1.531210    4.854630    0.855550
     18          6           0        0.277870    7.352600    0.879290
     19          6           0        0.595010    6.738180   -0.331160
     20          1           0       -0.206140    8.312200    0.810990
     21          6           0        1.235470    5.480700   -0.377610
     22          1           0        0.335400    7.252630   -1.247430
     23          1           0        2.019290    3.886290    0.868490
     24          6           0        1.583850    4.832980   -1.739520
     25          1           0        1.815810    4.341040   -2.712570
     26          1           0        1.936030    3.885390   -1.290330
     27          1           0        0.517950    4.895480   -2.058020
     28          8           0        2.539220    5.842220   -2.009010
     29          8           0        2.056050    6.603620   -2.979060
     30          1           0        2.789140    6.657570   -3.643180
 ---------------------------------------------------------------------
                    Distance matrix (angstroms):
                    1          2          3          4          5
     1  C    0.000000
     2  C    1.392857   0.000000
     3  C    1.391860   2.412047   0.000000
     4  H    1.082364   2.149370   2.147810   0.000000
     5  C    2.420027   2.796187   1.396657   3.399356   0.000000
     6  H    2.145633   3.391204   1.082622   2.469088   2.151287
     7  C    2.427527   1.404371   2.800484   3.407731   2.433311
     8  H    2.138136   1.083745   3.386112   2.457354   3.879759
     9  C    2.829640   2.453966   2.448146   3.912000   1.417294
    10  H    3.366923   3.871154   2.107178   4.248353   1.077019
    11  C    3.696723   2.418726   4.198698   4.566025   3.721217
    12  C    4.258519   3.748979   3.773619   5.340848   2.503144
    13  C    4.848039   3.695495   5.062881   5.804530   4.239454
    14  H    4.043425   2.654339   4.830089   4.726820   4.593917
    15  C    5.081963   4.218045   4.905240   6.134722   3.779546
    16  H    5.794020   4.550656   6.111017   6.695204   5.322713
    17  C    6.464142   5.622431   6.185038   7.525310   4.955971
    18  C    5.185607   4.948674   4.368037   6.246617   2.972126
    19  C    6.536444   6.178775   5.760986   7.606989   4.365640
    20  H    5.109480   5.165276   4.058444   6.110866   2.712076
    21  C    7.120814   6.498266   6.576589   8.202747   5.224410
    22  H    7.289783   7.072782   6.371264   8.337364   4.985512
    23  H    7.179613   6.193699   7.051839   8.209905   5.895233
    24  C    8.668419   8.022885   8.104293   9.750271   6.738300
    25  H    9.782840   9.123413   9.210657  10.864622   7.839213
    26  H    8.811831   8.010113   8.413245   9.882526   7.100535
    27  H    8.769904   8.218445   8.116528   9.847161   6.739847
    28  O    8.800134   8.243755   8.162881   9.869705   6.803395
    29  O    9.375455   8.984867   8.570575  10.435383   7.193902
    30  H   10.191656   9.788188   9.398438  11.243264   8.039513
                    6          7          8          9         10
     6  H    0.000000
     7  C    3.883102   0.000000
     8  H    4.274290   2.168428   0.000000
     9  C    3.426231   1.423879   3.440633   0.000000
    10  H    2.411696   3.434033   4.954178   2.196578   0.000000
    11  C    5.281273   1.398432   2.658173   2.448188   4.632639
    12  C    4.650643   2.458989   4.625088   1.429403   2.797926
    13  C    6.122752   2.420891   4.044066   2.823581   4.935998
    14  H    5.893925   2.162313   2.431454   3.435151   5.571795
    15  C    5.875578   2.813903   4.850132   2.458489   4.204734
    16  H    7.179341   3.392698   4.708126   3.907342   6.011209
    17  C    7.098726   4.218565   6.226855   3.750353   5.176036
    18  C    5.017751   3.774428   5.905900   2.496477   2.718922
    19  C    6.400706   4.901538   7.068677   3.767643   4.059906
    20  H    4.500974   4.197172   6.201055   2.787566   2.090796
    21  C    7.354331   5.117142   7.242179   4.293654   5.149125
    22  H    6.875446   5.856186   8.009943   4.624164   4.467675
    23  H    8.012826   4.818305   6.650631   4.604296   6.200428
    24  C    8.849531   6.631752   8.729948   5.841309   6.579513
    25  H    9.939677   7.728025   9.809210   6.955890   7.642651
    26  H    9.247651   6.605894   8.603040   6.034122   7.099220
    27  H    8.799095   6.855994   8.977801   5.962486   6.485394
    28  O    8.846802   6.893723   8.991175   6.024312   6.564106
    29  O    9.127066   7.679895   9.819882   6.636293   6.761416
    30  H    9.943743   8.488672  10.601365   7.481373   7.605615
                   11         12         13         14         15
    11  C    0.000000
    12  C    2.824107   0.000000
    13  C    1.389340   2.445959   0.000000
    14  H    1.083906   3.907844   2.134622   0.000000
    15  C    2.423670   1.420906   1.400122   3.396195   0.000000
    16  H    2.133066   3.433171   1.083939   2.431661   2.164262
    17  C    3.697176   2.454507   2.419222   4.552778   1.404997
    18  C    4.234377   1.411623   3.714418   5.317641   2.425650
    19  C    5.061306   2.443848   4.196738   6.109957   2.796794
    20  H    4.928826   2.190166   4.624551   6.003797   3.425933
    21  C    4.881447   2.864722   3.725569   5.826242   2.458488
    22  H    6.113509   3.408357   5.278886   7.171868   3.878825
    23  H    4.007640   3.426403   2.621063   4.669445   2.147008
    24  C    6.276101   4.412256   5.014063   7.148106   3.889753
    25  H    7.313241   5.526806   6.011517   8.142674   4.959926
    26  H    6.024757   4.641765   4.674183   6.781800   3.792229
    27  H    6.621891   4.560371   5.431253   7.534707   4.236619
    28  O    6.651285   4.648528   5.473594   7.549402   4.313798
    29  O    7.620601   5.301537   6.524805   8.582174   5.252896
    30  H    8.383833   6.163775   7.266447   9.313132   6.053452
                   16         17         18         19         20
    16  H    0.000000
    17  C    2.654632   0.000000
    18  C    4.588042   2.794867   0.000000
    19  C    4.829993   2.415059   1.394015   0.000000
    20  H    5.564818   3.869775   1.076923   2.103304   0.000000
    21  C    4.066422   1.414252   2.449654   1.411950   3.392404
    22  H    5.899399   3.406302   2.129845   1.082408   2.377614
    23  H    2.390452   1.084468   3.879171   3.406026   4.954243
    24  C    5.114698   2.595694   3.861636   2.567308   4.670561
    25  H    5.995678   3.616110   4.933175   3.592735   5.681009
    26  H    4.550018   2.389164   4.413422   3.294959   5.347998
    27  H    5.626718   3.085005   3.837039   2.526564   4.519900
    28  O    5.657272   3.193293   3.967018   2.719904   4.646526
    29  O    6.821379   4.247194   4.313903   3.027230   4.732994
    30  H    7.492258   5.007150   5.219414   3.973686   5.616861
                   21         22         23         24         25
    21  C    0.000000
    22  H    2.169435   0.000000
    23  H    2.170088   4.317968   0.000000
    24  C    1.547808   2.766855   2.808478   0.000000
    25  H    2.662266   3.579889   3.615549   1.114736   0.000000
    26  H    1.966941   3.728560   2.160425   1.106223   1.498278
    27  H    1.918618   2.499307   3.440486   1.114222   1.555725
    28  O    2.119417   2.725084   3.517953   1.415600   1.808828
    29  O    2.949889   2.525944   4.710507   2.212374   2.290851
    30  H    3.803007   3.480597   5.350498   2.899271   2.679499
                   26         27         28         29         30
    26  H    0.000000
    27  H    1.902782   0.000000
    28  O    2.170143   2.232544   0.000000
    29  O    3.202341   2.476249   1.324455   0.000000
    30  H    3.734793   3.282681   1.843303   0.990650   0.000000
 Stoichiometry    C15H13O2(2)
 Framework group  C1[X(C15H13O2)]
 Deg. of freedom    84
 Full point group                 C1      NOp   1
 Largest Abelian subgroup         C1      NOp   1
 Largest concise Abelian subgroup C1      NOp   1
                         Standard orientation:                         
 ---------------------------------------------------------------------
 Center     Atomic      Atomic             Coordinates (Angstroms)
 Number     Number       Type             X           Y           Z
 ---------------------------------------------------------------------
      1          6           0        4.620426   -0.716051    0.187206
      2          6           0        4.059247    0.557854    0.235094
      3          6           0        3.804534   -1.830752    0.016805
      4          1           0        5.691420   -0.839828    0.282918
      5          6           0        2.421218   -1.682483   -0.106091
      6          1           0        4.245973   -2.818621   -0.019494
      7          6           0        2.670511    0.728016    0.113792
      8          1           0        4.712233    1.412366    0.368976
      9          6           0        1.819339   -0.400173   -0.059769
     10          1           0        1.854762   -2.589561   -0.233786
     11          6           0        2.131686    2.017361    0.167373
     12          6           0        0.409399   -0.194625   -0.173835
     13          6           0        0.761017    2.215017    0.055742
     14          1           0        2.774813    2.879845    0.299137
     15          6           0       -0.105671    1.128170   -0.111463
     16          1           0        0.375972    3.227096    0.104319
     17          6           0       -1.487407    1.362743   -0.210443
     18          6           0       -0.509907   -1.252173   -0.344567
     19          6           0       -1.879461   -1.009421   -0.437697
     20          1           0       -0.206246   -2.283508   -0.407020
     21          6           0       -2.406025    0.298669   -0.365360
     22          1           0       -2.539662   -1.857023   -0.569274
     23          1           0       -1.846134    2.384602   -0.153963
     24          6           0       -3.933395    0.530680   -0.460326
     25          1           0       -5.028486    0.716139   -0.555289
     26          1           0       -3.846898    1.633469   -0.470474
     27          1           0       -3.967404    0.000499   -1.439735
     28          8           0       -4.138806   -0.113639    0.783291
     29          8           0       -4.731758   -1.273025    0.541606
     30          1           0       -5.508904   -1.289171    1.155748
 ---------------------------------------------------------------------
 Rotational constants (GHZ):           1.3114261           0.2456161           0.2120824
 Standard basis: 6-311+G(2df,2p) (5D, 7F)
 There are   780 symmetry adapted cartesian basis functions of A   symmetry.
 There are   695 symmetry adapted basis functions of A   symmetry.
   695 basis functions,  1027 primitive gaussians,   780 cartesian basis functions
    60 alpha electrons       59 beta electrons
       nuclear repulsion energy      1109.3755639507 Hartrees.
 NAtoms=   30 NActive=   30 NUniq=   30 SFac= 1.00D+00 NAtFMM=   60 NAOKFM=F Big=F
 Integral buffers will be    131072 words long.
 Raffenetti 2 integral format.
 Two-electron integral symmetry is turned on.
 One-electron integrals computed using PRISM.
 NBasis=   695 RedAO= T EigKep=  1.02D-06  NBF=   695
 NBsUse=   688 1.00D-06 EigRej=  9.36D-07 NBFU=   688
 ExpMin= 4.38D-02 ExpMax= 8.59D+03 ExpMxC= 1.30D+03 IAcc=3 IRadAn=         5 AccDes= 0.00D+00
 Harris functional with IExCor= 1009 and IRadAn=       5 diagonalized for initial guess.
 HarFok:  IExCor= 1009 AccDes= 0.00D+00 IRadAn=         5 IDoV= 1 UseB2=F ITyADJ=14
 ICtDFT=  3500011 ScaDFX=  1.000000  1.000000  1.000000  1.000000
 FoFCou: FMM=F IPFlag=           0 FMFlag=      100000 FMFlg1=           0
         NFxFlg=           0 DoJE=T BraDBF=F KetDBF=T FulRan=T
         wScrn=  0.000000 ICntrl=       500 IOpCl=  0 I1Cent=   200000004 NGrid=           0
         NMat0=    1 NMatS0=      1 NMatT0=    0 NMatD0=    1 NMtDS0=    0 NMtDT0=    0
 Petite list used in FoFCou.
 Initial guess <Sx>= 0.0000 <Sy>= 0.0000 <Sz>= 0.5000 <S**2>= 0.7500 S= 0.5000
 Requested convergence on RMS density matrix=1.00D-08 within 128 cycles.
 Requested convergence on MAX density matrix=1.00D-06.
 Requested convergence on             energy=1.00D-06.
 No special actions if energy rises.
 Restarting incremental Fock formation.
 SCF Done:  E(UM062X) =  -729.508233633     A.U. after   22 cycles
            NFock= 22  Conv=0.37D-08     -V/T= 2.0032
 <Sx>= 0.0000 <Sy>= 0.0000 <Sz>= 0.5000 <S**2>= 0.7566 S= 0.5033
 <L.S>= 0.000000000000E+00
 Annihilation of the first spin contaminant:
 S**2 before annihilation     0.7566,   after     0.7500

 **********************************************************************

            Population analysis using the SCF density.

 **********************************************************************

 Orbital symmetries:
 Alpha Orbitals:
       Occupied  (A) (A) (A) (A) (A) (A) (A) (A) (A) (A) (A) (A)
                 (A) (A) (A) (A) (A) (A) (A) (A) (A) (A) (A) (A)
                 (A) (A) (A) (A) (A) (A) (A) (A) (A) (A) (A) (A)
                 (A) (A) (A) (A) (A) (A) (A) (A) (A) (A) (A) (A)
                 (A) (A) (A) (A) (A) (A) (A) (A) (A) (A) (A) (A)
       Virtual   (A) (A) (A) (A) (A) (A) (A) (A) (A) (A) (A) (A)
                 (A) (A) (A) (A) (A) (A) (A) (A) (A) (A) (A) (A)
                 (A) (A) (A) (A) (A) (A) (A) (A) (A) (A) (A) (A)
                 (A) (A) (A) (A) (A) (A) (A) (A) (A) (A) (A) (A)
                 (A) (A) (A) (A) (A) (A) (A) (A) (A) (A) (A) (A)
                 (A) (A) (A) (A) (A) (A) (A) (A) (A) (A) (A) (A)
                 (A) (A) (A) (A) (A) (A) (A) (A) (A) (A) (A) (A)
                 (A) (A) (A) (A) (A) (A) (A) (A) (A) (A) (A) (A)
                 (A) (A) (A) (A) (A) (A) (A) (A) (A) (A) (A) (A)
                 (A) (A) (A) (A) (A) (A) (A) (A) (A) (A) (A) (A)
                 (A) (A) (A) (A) (A) (A) (A) (A) (A) (A) (A) (A)
                 (A) (A) (A) (A) (A) (A) (A) (A) (A) (A) (A) (A)
                 (A) (A) (A) (A) (A) (A) (A) (A) (A) (A) (A) (A)
                 (A) (A) (A) (A) (A) (A) (A) (A) (A) (A) (A) (A)
                 (A) (A) (A) (A) (A) (A) (A) (A) (A) (A) (A) (A)
                 (A) (A) (A) (A) (A) (A) (A) (A) (A) (A) (A) (A)
                 (A) (A) (A) (A) (A) (A) (A) (A) (A) (A) (A) (A)
                 (A) (A) (A) (A) (A) (A) (A) (A) (A) (A) (A) (A)
                 (A) (A) (A) (A) (A) (A) (A) (A) (A) (A) (A) (A)
                 (A) (A) (A) (A) (A) (A) (A) (A) (A) (A) (A) (A)
                 (A) (A) (A) (A) (A) (A) (A) (A) (A) (A) (A) (A)
                 (A) (A) (A) (A) (A) (A) (A) (A) (A) (A) (A) (A)
                 (A) (A) (A) (A) (A) (A) (A) (A) (A) (A) (A) (A)
                 (A) (A) (A) (A) (A) (A) (A) (A) (A) (A) (A) (A)
                 (A) (A) (A) (A) (A) (A) (A) (A) (A) (A) (A) (A)
                 (A) (A) (A) (A) (A) (A) (A) (A) (A) (A) (A) (A)
                 (A) (A) (A) (A) (A) (A) (A) (A) (A) (A) (A) (A)
                 (A) (A) (A) (A) (A) (A) (A) (A) (A) (A) (A) (A)
                 (A) (A) (A) (A) (A) (A) (A) (A) (A) (A) (A) (A)
                 (A) (A) (A) (A) (A) (A) (A) (A) (A) (A) (A) (A)
                 (A) (A) (A) (A) (A) (A) (A) (A) (A) (A) (A) (A)
                 (A) (A) (A) (A) (A) (A) (A) (A) (A) (A) (A) (A)
                 (A) (A) (A) (A) (A) (A) (A) (A) (A) (A) (A) (A)
                 (A) (A) (A) (A) (A) (A) (A) (A) (A) (A) (A) (A)
                 (A) (A) (A) (A) (A) (A) (A) (A) (A) (A) (A) (A)
                 (A) (A) (A) (A) (A) (A) (A) (A) (A) (A) (A) (A)
                 (A) (A) (A) (A) (A) (A) (A) (A) (A) (A) (A) (A)
                 (A) (A) (A) (A) (A) (A) (A) (A) (A) (A) (A) (A)
                 (A) (A) (A) (A) (A) (A) (A) (A) (A) (A) (A) (A)
                 (A) (A) (A) (A) (A) (A) (A) (A) (A) (A) (A) (A)
                 (A) (A) (A) (A) (A) (A) (A) (A) (A) (A) (A) (A)
                 (A) (A) (A) (A) (A) (A) (A) (A) (A) (A) (A) (A)
                 (A) (A) (A) (A) (A) (A) (A) (A) (A) (A) (A) (A)
                 (A) (A) (A) (A) (A) (A) (A) (A) (A) (A) (A) (A)
                 (A) (A) (A) (A) (A) (A) (A) (A) (A) (A) (A) (A)
                 (A) (A) (A) (A) (A) (A) (A) (A) (A) (A) (A) (A)
                 (A) (A) (A) (A) (A) (A) (A) (A) (A) (A) (A) (A)
                 (A) (A) (A) (A) (A) (A) (A) (A) (A) (A) (A) (A)
                 (A) (A) (A) (A) (A) (A) (A) (A) (A) (A) (A) (A)
                 (A) (A) (A) (A) (A) (A) (A) (A) (A) (A) (A) (A)
                 (A) (A) (A) (A) (A) (A) (A) (A) (A) (A) (A) (A)
                 (A) (A) (A) (A) (A) (A) (A) (A) (A) (A) (A) (A)
                 (A) (A) (A) (A)
 Beta  Orbitals:
       Occupied  (A) (A) (A) (A) (A) (A) (A) (A) (A) (A) (A) (A)
                 (A) (A) (A) (A) (A) (A) (A) (A) (A) (A) (A) (A)
                 (A) (A) (A) (A) (A) (A) (A) (A) (A) (A) (A) (A)
                 (A) (A) (A) (A) (A) (A) (A) (A) (A) (A) (A) (A)
                 (A) (A) (A) (A) (A) (A) (A) (A) (A) (A) (A)
       Virtual   (A) (A) (A) (A) (A) (A) (A) (A) (A) (A) (A) (A)
                 (A) (A) (A) (A) (A) (A) (A) (A) (A) (A) (A) (A)
                 (A) (A) (A) (A) (A) (A) (A) (A) (A) (A) (A) (A)
                 (A) (A) (A) (A) (A) (A) (A) (A) (A) (A) (A) (A)
                 (A) (A) (A) (A) (A) (A) (A) (A) (A) (A) (A) (A)
                 (A) (A) (A) (A) (A) (A) (A) (A) (A) (A) (A) (A)
                 (A) (A) (A) (A) (A) (A) (A) (A) (A) (A) (A) (A)
                 (A) (A) (A) (A) (A) (A) (A) (A) (A) (A) (A) (A)
                 (A) (A) (A) (A) (A) (A) (A) (A) (A) (A) (A) (A)
                 (A) (A) (A) (A) (A) (A) (A) (A) (A) (A) (A) (A)
                 (A) (A) (A) (A) (A) (A) (A) (A) (A) (A) (A) (A)
                 (A) (A) (A) (A) (A) (A) (A) (A) (A) (A) (A) (A)
                 (A) (A) (A) (A) (A) (A) (A) (A) (A) (A) (A) (A)
                 (A) (A) (A) (A) (A) (A) (A) (A) (A) (A) (A) (A)
                 (A) (A) (A) (A) (A) (A) (A) (A) (A) (A) (A) (A)
                 (A) (A) (A) (A) (A) (A) (A) (A) (A) (A) (A) (A)
                 (A) (A) (A) (A) (A) (A) (A) (A) (A) (A) (A) (A)
                 (A) (A) (A) (A) (A) (A) (A) (A) (A) (A) (A) (A)
                 (A) (A) (A) (A) (A) (A) (A) (A) (A) (A) (A) (A)
                 (A) (A) (A) (A) (A) (A) (A) (A) (A) (A) (A) (A)
                 (A) (A) (A) (A) (A) (A) (A) (A) (A) (A) (A) (A)
                 (A) (A) (A) (A) (A) (A) (A) (A) (A) (A) (A) (A)
                 (A) (A) (A) (A) (A) (A) (A) (A) (A) (A) (A) (A)
                 (A) (A) (A) (A) (A) (A) (A) (A) (A) (A) (A) (A)
                 (A) (A) (A) (A) (A) (A) (A) (A) (A) (A) (A) (A)
                 (A) (A) (A) (A) (A) (A) (A) (A) (A) (A) (A) (A)
                 (A) (A) (A) (A) (A) (A) (A) (A) (A) (A) (A) (A)
                 (A) (A) (A) (A) (A) (A) (A) (A) (A) (A) (A) (A)
                 (A) (A) (A) (A) (A) (A) (A) (A) (A) (A) (A) (A)
                 (A) (A) (A) (A) (A) (A) (A) (A) (A) (A) (A) (A)
                 (A) (A) (A) (A) (A) (A) (A) (A) (A) (A) (A) (A)
                 (A) (A) (A) (A) (A) (A) (A) (A) (A) (A) (A) (A)
                 (A) (A) (A) (A) (A) (A) (A) (A) (A) (A) (A) (A)
                 (A) (A) (A) (A) (A) (A) (A) (A) (A) (A) (A) (A)
                 (A) (A) (A) (A) (A) (A) (A) (A) (A) (A) (A) (A)
                 (A) (A) (A) (A) (A) (A) (A) (A) (A) (A) (A) (A)
                 (A) (A) (A) (A) (A) (A) (A) (A) (A) (A) (A) (A)
                 (A) (A) (A) (A) (A) (A) (A) (A) (A) (A) (A) (A)
                 (A) (A) (A) (A) (A) (A) (A) (A) (A) (A) (A) (A)
                 (A) (A) (A) (A) (A) (A) (A) (A) (A) (A) (A) (A)
                 (A) (A) (A) (A) (A) (A) (A) (A) (A) (A) (A) (A)
                 (A) (A) (A) (A) (A) (A) (A) (A) (A) (A) (A) (A)
                 (A) (A) (A) (A) (A) (A) (A) (A) (A) (A) (A) (A)
                 (A) (A) (A) (A) (A) (A) (A) (A) (A) (A) (A) (A)
                 (A) (A) (A) (A) (A) (A) (A) (A) (A) (A) (A) (A)
                 (A) (A) (A) (A) (A) (A) (A) (A) (A) (A) (A) (A)
                 (A) (A) (A) (A) (A) (A) (A) (A) (A) (A) (A) (A)
                 (A) (A) (A) (A) (A) (A) (A) (A) (A) (A) (A) (A)
                 (A) (A) (A) (A) (A) (A) (A) (A) (A) (A) (A) (A)
                 (A) (A) (A) (A) (A) (A) (A) (A) (A) (A) (A) (A)
                 (A) (A) (A) (A) (A) (A) (A) (A) (A) (A) (A) (A)
                 (A) (A) (A) (A) (A) (A) (A) (A) (A) (A) (A) (A)
                 (A) (A) (A) (A) (A)
 The electronic state is 2-A.
 Alpha  occ. eigenvalues --  -19.69163 -19.68441 -10.61475 -10.56194 -10.55517
 Alpha  occ. eigenvalues --  -10.55185 -10.54997 -10.54870 -10.54572 -10.54509
 Alpha  occ. eigenvalues --  -10.54398 -10.54373 -10.54330 -10.54253 -10.54249
 Alpha  occ. eigenvalues --  -10.54228 -10.54083  -1.32813  -1.04715  -0.99240
 Alpha  occ. eigenvalues --   -0.95303  -0.91233  -0.88364  -0.85874  -0.84293
 Alpha  occ. eigenvalues --   -0.80882  -0.79719  -0.72446  -0.71508  -0.69359
 Alpha  occ. eigenvalues --   -0.67254  -0.65414  -0.63024  -0.61278  -0.60612
 Alpha  occ. eigenvalues --   -0.57711  -0.57159  -0.55761  -0.53782  -0.51800
 Alpha  occ. eigenvalues --   -0.50826  -0.49913  -0.49674  -0.47899  -0.47409
 Alpha  occ. eigenvalues --   -0.46459  -0.45730  -0.44082  -0.43389  -0.42067
 Alpha  occ. eigenvalues --   -0.41232  -0.39213  -0.38468  -0.38015  -0.35469
 Alpha  occ. eigenvalues --   -0.33163  -0.31848  -0.27093  -0.25823  -0.20836
 Alpha virt. eigenvalues --   -0.02272  -0.01378   0.01202   0.01606   0.01839
 Alpha virt. eigenvalues --    0.01892   0.02935   0.03308   0.03851   0.04825
 Alpha virt. eigenvalues --    0.04935   0.05387   0.06165   0.06660   0.07131
 Alpha virt. eigenvalues --    0.07577   0.07664   0.07901   0.08764   0.09229
 Alpha virt. eigenvalues --    0.10508   0.10635   0.11102   0.11477   0.12319
 Alpha virt. eigenvalues --    0.12573   0.12845   0.13024   0.14049   0.14396
 Alpha virt. eigenvalues --    0.14732   0.14946   0.15474   0.15858   0.16684
 Alpha virt. eigenvalues --    0.17299   0.17538   0.17763   0.18061   0.18406
 Alpha virt. eigenvalues --    0.18545   0.19192   0.19650   0.20053   0.20271
 Alpha virt. eigenvalues --    0.20314   0.21210   0.21331   0.21454   0.21629
 Alpha virt. eigenvalues --    0.22267   0.22416   0.22764   0.23075   0.23449
 Alpha virt. eigenvalues --    0.23836   0.24661   0.25426   0.25486   0.26174
 Alpha virt. eigenvalues --    0.26410   0.26722   0.27438   0.27695   0.28051
 Alpha virt. eigenvalues --    0.28412   0.28741   0.29067   0.29338   0.30110
 Alpha virt. eigenvalues --    0.30478   0.30918   0.31437   0.31790   0.32417
 Alpha virt. eigenvalues --    0.32819   0.33374   0.33681   0.34050   0.34376
 Alpha virt. eigenvalues --    0.35232   0.35789   0.35947   0.37399   0.37962
 Alpha virt. eigenvalues --    0.38255   0.39290   0.40080   0.41014   0.42100
 Alpha virt. eigenvalues --    0.43650   0.44324   0.44881   0.47306   0.48852
 Alpha virt. eigenvalues --    0.50120   0.50519   0.50791   0.51268   0.51792
 Alpha virt. eigenvalues --    0.52513   0.52797   0.53260   0.53411   0.54599
 Alpha virt. eigenvalues --    0.55690   0.55946   0.56145   0.56495   0.56934
 Alpha virt. eigenvalues --    0.58011   0.58204   0.58737   0.59173   0.59418
 Alpha virt. eigenvalues --    0.59791   0.60678   0.60925   0.61593   0.61911
 Alpha virt. eigenvalues --    0.62488   0.62894   0.63510   0.64193   0.64322
 Alpha virt. eigenvalues --    0.64863   0.65982   0.66077   0.66320   0.67350
 Alpha virt. eigenvalues --    0.67539   0.68318   0.69046   0.69350   0.69602
 Alpha virt. eigenvalues --    0.69901   0.70429   0.71242   0.71474   0.71652
 Alpha virt. eigenvalues --    0.72211   0.72482   0.73003   0.73888   0.74297
 Alpha virt. eigenvalues --    0.75234   0.75525   0.76202   0.76447   0.77055
 Alpha virt. eigenvalues --    0.77979   0.78551   0.79075   0.79617   0.79783
 Alpha virt. eigenvalues --    0.80163   0.80977   0.81169   0.82505   0.83222
 Alpha virt. eigenvalues --    0.84736   0.85282   0.85953   0.86743   0.87134
 Alpha virt. eigenvalues --    0.87461   0.87727   0.88207   0.88698   0.89875
 Alpha virt. eigenvalues --    0.90768   0.91106   0.92352   0.92842   0.94322
 Alpha virt. eigenvalues --    0.95409   0.96627   0.96895   0.98105   0.99124
 Alpha virt. eigenvalues --    1.00419   1.01021   1.02049   1.03085   1.04295
 Alpha virt. eigenvalues --    1.04846   1.05214   1.06188   1.06943   1.07718
 Alpha virt. eigenvalues --    1.08697   1.08837   1.10197   1.10934   1.11410
 Alpha virt. eigenvalues --    1.12178   1.12916   1.13759   1.14066   1.14102
 Alpha virt. eigenvalues --    1.14977   1.15816   1.16077   1.16801   1.17969
 Alpha virt. eigenvalues --    1.18710   1.18861   1.20176   1.20769   1.22282
 Alpha virt. eigenvalues --    1.22378   1.23312   1.24817   1.25103   1.26958
 Alpha virt. eigenvalues --    1.27171   1.28384   1.28821   1.29384   1.29915
 Alpha virt. eigenvalues --    1.30567   1.31598   1.32044   1.33678   1.33712
 Alpha virt. eigenvalues --    1.34580   1.35374   1.36165   1.36448   1.36720
 Alpha virt. eigenvalues --    1.37353   1.38230   1.38569   1.39792   1.40525
 Alpha virt. eigenvalues --    1.40618   1.40887   1.41336   1.41824   1.43104
 Alpha virt. eigenvalues --    1.43366   1.44048   1.44988   1.45184   1.47605
 Alpha virt. eigenvalues --    1.47805   1.48264   1.49215   1.50615   1.50750
 Alpha virt. eigenvalues --    1.52423   1.52850   1.53826   1.54705   1.55128
 Alpha virt. eigenvalues --    1.57132   1.57465   1.60726   1.62355   1.63421
 Alpha virt. eigenvalues --    1.65305   1.67045   1.68190   1.68768   1.70195
 Alpha virt. eigenvalues --    1.71287   1.71493   1.73321   1.73952   1.75218
 Alpha virt. eigenvalues --    1.75831   1.76484   1.79488   1.80306   1.81013
 Alpha virt. eigenvalues --    1.82942   1.83822   1.85818   1.86907   1.87383
 Alpha virt. eigenvalues --    1.87657   1.89317   1.91354   1.94752   1.95133
 Alpha virt. eigenvalues --    1.97828   1.99176   2.01890   2.03013   2.05063
 Alpha virt. eigenvalues --    2.07267   2.10732   2.13837   2.15358   2.18323
 Alpha virt. eigenvalues --    2.23056   2.27828   2.30005   2.32334   2.35960
 Alpha virt. eigenvalues --    2.38820   2.40482   2.47149   2.50069   2.51003
 Alpha virt. eigenvalues --    2.55650   2.56264   2.57856   2.58696   2.59969
 Alpha virt. eigenvalues --    2.61066   2.62595   2.63327   2.64778   2.65407
 Alpha virt. eigenvalues --    2.66891   2.69052   2.70554   2.71092   2.71861
 Alpha virt. eigenvalues --    2.72912   2.73911   2.74993   2.76390   2.77301
 Alpha virt. eigenvalues --    2.77416   2.78761   2.79179   2.79590   2.80360
 Alpha virt. eigenvalues --    2.81082   2.81729   2.82029   2.83161   2.84129
 Alpha virt. eigenvalues --    2.84941   2.85601   2.86037   2.86583   2.86972
 Alpha virt. eigenvalues --    2.87432   2.87695   2.87955   2.88791   2.89218
 Alpha virt. eigenvalues --    2.90030   2.90291   2.90741   2.91879   2.93054
 Alpha virt. eigenvalues --    2.93794   2.93945   2.94485   2.94912   2.96059
 Alpha virt. eigenvalues --    2.96545   2.97392   2.97939   2.98722   3.00940
 Alpha virt. eigenvalues --    3.01878   3.03095   3.04813   3.06193   3.06854
 Alpha virt. eigenvalues --    3.07932   3.08634   3.09452   3.11032   3.11491
 Alpha virt. eigenvalues --    3.12087   3.13245   3.13483   3.13973   3.15364
 Alpha virt. eigenvalues --    3.15675   3.16849   3.17046   3.17344   3.18049
 Alpha virt. eigenvalues --    3.18587   3.20393   3.20919   3.21292   3.21740
 Alpha virt. eigenvalues --    3.22872   3.23440   3.24254   3.24618   3.25452
 Alpha virt. eigenvalues --    3.26230   3.26333   3.27692   3.28789   3.28925
 Alpha virt. eigenvalues --    3.29434   3.30318   3.30907   3.31902   3.33460
 Alpha virt. eigenvalues --    3.33834   3.34143   3.35377   3.35565   3.36057
 Alpha virt. eigenvalues --    3.36654   3.37283   3.39076   3.39966   3.40782
 Alpha virt. eigenvalues --    3.42652   3.44030   3.44836   3.45267   3.45500
 Alpha virt. eigenvalues --    3.46232   3.46363   3.46721   3.47506   3.47683
 Alpha virt. eigenvalues --    3.49549   3.51031   3.51832   3.52675   3.53516
 Alpha virt. eigenvalues --    3.53907   3.54602   3.54793   3.56794   3.58023
 Alpha virt. eigenvalues --    3.58900   3.60403   3.60774   3.61372   3.62629
 Alpha virt. eigenvalues --    3.63845   3.65243   3.65908   3.66603   3.68635
 Alpha virt. eigenvalues --    3.70194   3.70682   3.70890   3.71456   3.71813
 Alpha virt. eigenvalues --    3.72669   3.73816   3.74451   3.76402   3.76962
 Alpha virt. eigenvalues --    3.77875   3.78511   3.78654   3.79128   3.79573
 Alpha virt. eigenvalues --    3.80057   3.80462   3.82155   3.82925   3.84513
 Alpha virt. eigenvalues --    3.85500   3.86175   3.88062   3.88403   3.89561
 Alpha virt. eigenvalues --    3.90494   3.91449   3.93064   3.95195   3.96006
 Alpha virt. eigenvalues --    3.96777   3.97996   3.98390   3.99722   4.02884
 Alpha virt. eigenvalues --    4.05331   4.05755   4.08224   4.09069   4.09531
 Alpha virt. eigenvalues --    4.10579   4.10761   4.12617   4.14382   4.15075
 Alpha virt. eigenvalues --    4.15918   4.17082   4.17613   4.19677   4.21371
 Alpha virt. eigenvalues --    4.22078   4.25733   4.26063   4.27580   4.28475
 Alpha virt. eigenvalues --    4.29083   4.29519   4.29809   4.31430   4.31834
 Alpha virt. eigenvalues --    4.32711   4.33444   4.33745   4.34865   4.35640
 Alpha virt. eigenvalues --    4.37483   4.38156   4.39187   4.39972   4.40432
 Alpha virt. eigenvalues --    4.41492   4.42559   4.44442   4.44536   4.45886
 Alpha virt. eigenvalues --    4.46408   4.47230   4.48015   4.48283   4.48840
 Alpha virt. eigenvalues --    4.49780   4.49983   4.52045   4.52964   4.53674
 Alpha virt. eigenvalues --    4.55319   4.55654   4.56411   4.57891   4.59111
 Alpha virt. eigenvalues --    4.60386   4.62239   4.65326   4.65991   4.67753
 Alpha virt. eigenvalues --    4.70330   4.71396   4.73023   4.73443   4.76229
 Alpha virt. eigenvalues --    4.77224   4.78786   4.81530   4.82158   4.85237
 Alpha virt. eigenvalues --    4.86130   4.87318   4.92446   4.96024   4.97432
 Alpha virt. eigenvalues --    5.00705   5.01126   5.02418   5.03269   5.09611
 Alpha virt. eigenvalues --    5.12646   5.13974   5.16272   5.17044   5.18395
 Alpha virt. eigenvalues --    5.22108   5.23855   5.25496   5.30233   5.30868
 Alpha virt. eigenvalues --    5.33741   5.35243   5.36285   5.38234   5.40583
 Alpha virt. eigenvalues --    5.44514   5.46854   5.48151   5.49666   5.52326
 Alpha virt. eigenvalues --    5.53871   5.57820   5.60710   5.63086   5.67405
 Alpha virt. eigenvalues --    5.71284   5.72922   5.74271   5.78811   5.80042
 Alpha virt. eigenvalues --    5.80679   5.84604   5.87871   5.92449   5.99495
 Alpha virt. eigenvalues --    6.03405   6.19584   6.30285   6.33298   6.36862
 Alpha virt. eigenvalues --    6.41965   6.44732   6.55327   6.59741   6.90791
 Alpha virt. eigenvalues --    6.92019   6.96740   7.04775   7.19271   7.21300
 Alpha virt. eigenvalues --    7.36961   7.42662   7.59812   7.72982   7.99025
 Alpha virt. eigenvalues --    8.07557  23.91542  24.16094  24.36139  24.44437
 Alpha virt. eigenvalues --   24.57419  24.63438  24.65856  24.68805  24.75018
 Alpha virt. eigenvalues --   24.78383  24.79328  24.86131  25.08547  25.11817
 Alpha virt. eigenvalues --   25.26189  50.04735  50.18880
  Beta  occ. eigenvalues --  -19.69164 -19.68121 -10.61688 -10.55678 -10.55517
  Beta  occ. eigenvalues --  -10.55185 -10.54990 -10.54870 -10.54558 -10.54509
  Beta  occ. eigenvalues --  -10.54401 -10.54373 -10.54328 -10.54253 -10.54248
  Beta  occ. eigenvalues --  -10.54227 -10.54082  -1.32230  -1.03838  -0.99195
  Beta  occ. eigenvalues --   -0.95134  -0.91041  -0.87991  -0.85770  -0.83625
  Beta  occ. eigenvalues --   -0.80838  -0.78917  -0.71940  -0.71415  -0.69003
  Beta  occ. eigenvalues --   -0.66998  -0.64961  -0.61604  -0.60706  -0.60063
  Beta  occ. eigenvalues --   -0.57443  -0.56685  -0.55441  -0.53274  -0.51378
  Beta  occ. eigenvalues --   -0.50652  -0.49874  -0.48768  -0.47853  -0.47088
  Beta  occ. eigenvalues --   -0.46141  -0.45512  -0.43671  -0.43036  -0.41825
  Beta  occ. eigenvalues --   -0.40689  -0.39045  -0.38357  -0.37865  -0.34963
  Beta  occ. eigenvalues --   -0.32863  -0.31643  -0.26587  -0.25799
  Beta virt. eigenvalues --   -0.03753  -0.02270  -0.00932   0.00031   0.01483
  Beta virt. eigenvalues --    0.01709   0.01871   0.02851   0.03027   0.03299
  Beta virt. eigenvalues --    0.04597   0.04950   0.05356   0.06071   0.06613
  Beta virt. eigenvalues --    0.06980   0.07353   0.07609   0.07985   0.08394
  Beta virt. eigenvalues --    0.09075   0.10333   0.10524   0.10849   0.11401
  Beta virt. eigenvalues --    0.12019   0.12348   0.12713   0.12907   0.13711
  Beta virt. eigenvalues --    0.14181   0.14593   0.14820   0.15403   0.15762
  Beta virt. eigenvalues --    0.16620   0.17032   0.17695   0.17735   0.18034
  Beta virt. eigenvalues --    0.18358   0.18530   0.19057   0.19474   0.19937
  Beta virt. eigenvalues --    0.20057   0.20294   0.21175   0.21259   0.21396
  Beta virt. eigenvalues --    0.21650   0.22183   0.22402   0.22690   0.23066
  Beta virt. eigenvalues --    0.23228   0.23810   0.24549   0.25270   0.25437
  Beta virt. eigenvalues --    0.25916   0.26250   0.26594   0.27346   0.27592
  Beta virt. eigenvalues --    0.27821   0.28017   0.28620   0.28651   0.29085
  Beta virt. eigenvalues --    0.29944   0.30233   0.30339   0.31278   0.31715
  Beta virt. eigenvalues --    0.32262   0.32697   0.33269   0.33462   0.33779
  Beta virt. eigenvalues --    0.34347   0.35169   0.35500   0.35885   0.37195
  Beta virt. eigenvalues --    0.37767   0.38028   0.39136   0.39757   0.40976
  Beta virt. eigenvalues --    0.41594   0.43378   0.44127   0.44650   0.47109
  Beta virt. eigenvalues --    0.48816   0.50012   0.50345   0.50752   0.51278
  Beta virt. eigenvalues --    0.51612   0.52431   0.52693   0.53011   0.53203
  Beta virt. eigenvalues --    0.54596   0.55713   0.55894   0.56102   0.56480
  Beta virt. eigenvalues --    0.56624   0.57873   0.58006   0.58510   0.59162
  Beta virt. eigenvalues --    0.59272   0.59576   0.60597   0.60656   0.61271
  Beta virt. eigenvalues --    0.61707   0.62312   0.62634   0.63194   0.63531
  Beta virt. eigenvalues --    0.64113   0.64395   0.65924   0.66175   0.66341
  Beta virt. eigenvalues --    0.67344   0.67478   0.68338   0.69044   0.69385
  Beta virt. eigenvalues --    0.69603   0.69941   0.70532   0.71343   0.71481
  Beta virt. eigenvalues --    0.71748   0.72094   0.72547   0.72998   0.73889
  Beta virt. eigenvalues --    0.74263   0.75287   0.75535   0.76205   0.76447
  Beta virt. eigenvalues --    0.77040   0.77999   0.78637   0.79100   0.79649
  Beta virt. eigenvalues --    0.79787   0.80159   0.80926   0.81223   0.82513
  Beta virt. eigenvalues --    0.83260   0.84762   0.85288   0.85882   0.86745
  Beta virt. eigenvalues --    0.87116   0.87559   0.87747   0.88213   0.88575
  Beta virt. eigenvalues --    0.89881   0.90816   0.91107   0.92315   0.92706
  Beta virt. eigenvalues --    0.94308   0.95310   0.96584   0.96881   0.98102
  Beta virt. eigenvalues --    0.99122   1.00403   1.00922   1.01984   1.03039
  Beta virt. eigenvalues --    1.04193   1.04804   1.05200   1.06215   1.06884
  Beta virt. eigenvalues --    1.07628   1.08525   1.08811   1.10067   1.10849
  Beta virt. eigenvalues --    1.11377   1.12074   1.12901   1.13433   1.13905
  Beta virt. eigenvalues --    1.14085   1.14941   1.15771   1.16086   1.16750
  Beta virt. eigenvalues --    1.17904   1.18611   1.18802   1.20035   1.20742
  Beta virt. eigenvalues --    1.22209   1.22249   1.23256   1.24676   1.25014
  Beta virt. eigenvalues --    1.26794   1.26923   1.28357   1.28742   1.29125
  Beta virt. eigenvalues --    1.29635   1.30014   1.31544   1.32021   1.33180
  Beta virt. eigenvalues --    1.33601   1.34423   1.35063   1.35731   1.36232
  Beta virt. eigenvalues --    1.36484   1.37237   1.38155   1.38483   1.39608
  Beta virt. eigenvalues --    1.40232   1.40608   1.40822   1.41235   1.41619
  Beta virt. eigenvalues --    1.42836   1.43222   1.43812   1.44802   1.44986
  Beta virt. eigenvalues --    1.46988   1.47715   1.48028   1.49137   1.50132
  Beta virt. eigenvalues --    1.50282   1.51468   1.52720   1.53415   1.54496
  Beta virt. eigenvalues --    1.54811   1.56644   1.57328   1.60434   1.62326
  Beta virt. eigenvalues --    1.63379   1.65256   1.66916   1.68136   1.68686
  Beta virt. eigenvalues --    1.70165   1.71012   1.71511   1.73307   1.73922
  Beta virt. eigenvalues --    1.75213   1.75573   1.76486   1.79478   1.80319
  Beta virt. eigenvalues --    1.81051   1.82949   1.83800   1.85814   1.86949
  Beta virt. eigenvalues --    1.87440   1.87691   1.89276   1.91445   1.94711
  Beta virt. eigenvalues --    1.95164   1.97861   1.99235   2.01985   2.03026
  Beta virt. eigenvalues --    2.05114   2.07279   2.10933   2.13885   2.15489
  Beta virt. eigenvalues --    2.18464   2.23123   2.27730   2.29942   2.32424
  Beta virt. eigenvalues --    2.36009   2.38830   2.40497   2.47205   2.50090
  Beta virt. eigenvalues --    2.51102   2.55701   2.57193   2.58044   2.58975
  Beta virt. eigenvalues --    2.61071   2.61438   2.62787   2.63408   2.64901
  Beta virt. eigenvalues --    2.65440   2.67169   2.69418   2.70971   2.71472
  Beta virt. eigenvalues --    2.72198   2.73147   2.74578   2.75033   2.76409
  Beta virt. eigenvalues --    2.77307   2.77500   2.78812   2.79224   2.79730
  Beta virt. eigenvalues --    2.80402   2.81216   2.81802   2.82102   2.83205
  Beta virt. eigenvalues --    2.84235   2.85013   2.85634   2.86147   2.86679
  Beta virt. eigenvalues --    2.87016   2.87445   2.87715   2.88060   2.88838
  Beta virt. eigenvalues --    2.89258   2.90098   2.90398   2.90872   2.91981
  Beta virt. eigenvalues --    2.93132   2.93929   2.94083   2.94661   2.95166
  Beta virt. eigenvalues --    2.96271   2.96583   2.97598   2.98072   2.98939
  Beta virt. eigenvalues --    3.01282   3.01929   3.03204   3.05018   3.06381
  Beta virt. eigenvalues --    3.06830   3.07934   3.08534   3.09629   3.11052
  Beta virt. eigenvalues --    3.11572   3.12089   3.13305   3.13546   3.13964
  Beta virt. eigenvalues --    3.15417   3.15699   3.16813   3.17046   3.17324
  Beta virt. eigenvalues --    3.18248   3.18794   3.20285   3.21070   3.21267
  Beta virt. eigenvalues --    3.22035   3.22800   3.23529   3.24046   3.24446
  Beta virt. eigenvalues --    3.25309   3.25858   3.26365   3.27648   3.28448
  Beta virt. eigenvalues --    3.29009   3.29061   3.30289   3.30990   3.31976
  Beta virt. eigenvalues --    3.33379   3.33515   3.34194   3.35282   3.35627
  Beta virt. eigenvalues --    3.36083   3.36677   3.37330   3.38971   3.39880
  Beta virt. eigenvalues --    3.41154   3.42953   3.44247   3.44767   3.45382
  Beta virt. eigenvalues --    3.45407   3.46303   3.46496   3.46793   3.47472
  Beta virt. eigenvalues --    3.47924   3.49591   3.51110   3.52186   3.52727
  Beta virt. eigenvalues --    3.53170   3.53912   3.54582   3.54767   3.56773
  Beta virt. eigenvalues --    3.57898   3.58757   3.60406   3.60766   3.61397
  Beta virt. eigenvalues --    3.62734   3.63753   3.65127   3.65589   3.66476
  Beta virt. eigenvalues --    3.68694   3.70354   3.70694   3.70927   3.71252
  Beta virt. eigenvalues --    3.71826   3.72977   3.73841   3.74532   3.76108
  Beta virt. eigenvalues --    3.76847   3.77824   3.78440   3.78638   3.79228
  Beta virt. eigenvalues --    3.79622   3.80186   3.80505   3.82130   3.83050
  Beta virt. eigenvalues --    3.84491   3.85525   3.86276   3.88264   3.88481
  Beta virt. eigenvalues --    3.89680   3.90473   3.91463   3.93107   3.95338
  Beta virt. eigenvalues --    3.96163   3.96772   3.98016   3.98386   3.99581
  Beta virt. eigenvalues --    4.02912   4.05203   4.05824   4.08197   4.09067
  Beta virt. eigenvalues --    4.09531   4.10505   4.10670   4.12261   4.14373
  Beta virt. eigenvalues --    4.14827   4.15791   4.16736   4.17396   4.19387
  Beta virt. eigenvalues --    4.21659   4.22368   4.25575   4.26051   4.27569
  Beta virt. eigenvalues --    4.28412   4.29007   4.29560   4.29983   4.31470
  Beta virt. eigenvalues --    4.31825   4.32869   4.33437   4.33626   4.34813
  Beta virt. eigenvalues --    4.35556   4.37446   4.38205   4.39154   4.39905
  Beta virt. eigenvalues --    4.40376   4.41486   4.42572   4.44313   4.44626
  Beta virt. eigenvalues --    4.45990   4.46280   4.47068   4.48091   4.48173
  Beta virt. eigenvalues --    4.48869   4.49821   4.50019   4.52038   4.52985
  Beta virt. eigenvalues --    4.53629   4.55308   4.55640   4.56326   4.57931
  Beta virt. eigenvalues --    4.59129   4.60231   4.62175   4.65109   4.65565
  Beta virt. eigenvalues --    4.67565   4.70201   4.71371   4.73063   4.73487
  Beta virt. eigenvalues --    4.76413   4.77259   4.78852   4.81723   4.82263
  Beta virt. eigenvalues --    4.85348   4.86263   4.87405   4.92503   4.96069
  Beta virt. eigenvalues --    4.97516   5.00699   5.01205   5.02707   5.03531
  Beta virt. eigenvalues --    5.09767   5.12708   5.14118   5.16358   5.17279
  Beta virt. eigenvalues --    5.18751   5.22208   5.23812   5.25600   5.30219
  Beta virt. eigenvalues --    5.30844   5.33680   5.35423   5.36383   5.38271
  Beta virt. eigenvalues --    5.40629   5.44671   5.46751   5.47332   5.50295
  Beta virt. eigenvalues --    5.52421   5.53934   5.57789   5.60700   5.63333
  Beta virt. eigenvalues --    5.67652   5.71223   5.72939   5.74407   5.78879
  Beta virt. eigenvalues --    5.79946   5.80763   5.84702   5.87958   5.92604
  Beta virt. eigenvalues --    5.99586   6.03517   6.20220   6.31746   6.33603
  Beta virt. eigenvalues --    6.37380   6.42052   6.44772   6.54591   6.59906
  Beta virt. eigenvalues --    6.90822   6.91977   6.96888   7.04995   7.19514
  Beta virt. eigenvalues --    7.21855   7.37508   7.43033   7.59935   7.73308
  Beta virt. eigenvalues --    7.99350   8.07704  23.91560  24.16155  24.36184
  Beta virt. eigenvalues --   24.44255  24.57453  24.63449  24.66120  24.68879
  Beta virt. eigenvalues --   24.75063  24.78392  24.79339  24.86153  25.08623
  Beta virt. eigenvalues --   25.11893  25.26232  50.04721  50.18637
          Condensed to atoms (all electrons):
               1          2          3          4          5          6
     1  C    6.652234   0.367712   0.661016   0.344149  -0.717276   0.022010
     2  C    0.367712   7.022476  -0.470571  -0.032947   0.734013   0.009359
     3  C    0.661016  -0.470571   7.235207   0.001274   0.206539   0.364065
     4  H    0.344149  -0.032947   0.001274   0.485166   0.025261  -0.006861
     5  C   -0.717276   0.734013   0.206539   0.025261   9.325227  -0.063263
     6  H    0.022010   0.009359   0.364065  -0.006861  -0.063263   0.484171
     7  C   -0.224334  -0.822358   0.200020   0.030327  -0.218872  -0.010610
     8  H   -0.013849   0.441163  -0.002186  -0.006704   0.003826  -0.000108
     9  C    0.934900  -1.526801  -1.216978   0.002338  -1.020890   0.057145
    10  H   -0.012638  -0.016562  -0.048799  -0.000085   0.367860  -0.006529
    11  C   -0.970649   0.782702   0.265352   0.001894   0.284545   0.001502
    12  C   -0.030943  -0.620773  -0.194140   0.003794  -0.503139   0.000275
    13  C   -0.469962   0.120141   0.117450   0.000014   0.575008  -0.000283
    14  H    0.012060   0.048109   0.000066  -0.000014   0.001814  -0.000003
    15  C    0.101291  -0.300388  -0.395396   0.000738  -1.860381   0.002585
    16  H    0.000769   0.007945  -0.000676  -0.000001   0.000996   0.000000
    17  C   -0.014338   0.153078  -0.121041   0.000026   0.087701   0.000225
    18  C   -0.141758   0.226993  -0.123026   0.001694  -0.705971  -0.002769
    19  C   -0.054412  -0.093898   0.203483   0.000135   0.092303  -0.000749
    20  H    0.001512  -0.004608   0.039010  -0.000001   0.109264   0.000031
    21  C   -0.019776  -0.053936  -0.115500   0.000032  -0.281846  -0.000065
    22  H    0.000040   0.000257  -0.001782  -0.000000  -0.006554   0.000000
    23  H    0.000127   0.000025   0.000118  -0.000000  -0.001631   0.000000
    24  C   -0.004800   0.002637  -0.008430   0.000001  -0.061856  -0.000003
    25  H    0.000005   0.000009   0.000002  -0.000000   0.000181   0.000000
    26  H   -0.000027  -0.000042   0.000013   0.000000  -0.000370  -0.000000
    27  H   -0.000017  -0.000052   0.000006   0.000000  -0.000475  -0.000000
    28  O    0.000007  -0.000385   0.000559  -0.000000   0.003277   0.000000
    29  O   -0.000013   0.000072  -0.000262   0.000000  -0.001853  -0.000000
    30  H   -0.000000  -0.000004   0.000012   0.000000   0.000125  -0.000000
               7          8          9         10         11         12
     1  C   -0.224334  -0.013849   0.934900  -0.012638  -0.970649  -0.030943
     2  C   -0.822358   0.441163  -1.526801  -0.016562   0.782702  -0.620773
     3  C    0.200020  -0.002186  -1.216978  -0.048799   0.265352  -0.194140
     4  H    0.030327  -0.006704   0.002338  -0.000085   0.001894   0.003794
     5  C   -0.218872   0.003826  -1.020890   0.367860   0.284545  -0.503139
     6  H   -0.010610  -0.000108   0.057145  -0.006529   0.001502   0.000275
     7  C    9.647893  -0.124231   0.371473  -0.002783  -0.971142  -0.759977
     8  H   -0.124231   0.481917  -0.018215   0.000032   0.062242  -0.011235
     9  C    0.371473  -0.018215  10.364259  -0.003782  -2.455730   2.966605
    10  H   -0.002783   0.000032  -0.003782   0.470620   0.006829   0.031458
    11  C   -0.971142   0.062242  -2.455730   0.006829   9.892749  -1.243966
    12  C   -0.759977  -0.011235   2.966605   0.031458  -1.243966  11.875004
    13  C   -1.712784   0.034586  -0.992303   0.000221   2.154726  -2.134545
    14  H   -0.035859   0.002010  -0.000027   0.000014   0.373053  -0.016228
    15  C    1.117845  -0.003505  -0.359852   0.005556  -1.564722  -2.382386
    16  H    0.017010  -0.000012  -0.030082  -0.000002   0.006284  -0.013696
    17  C   -0.338779  -0.000043  -0.110171   0.000904  -0.332463  -0.511313
    18  C   -0.019025   0.001311  -1.355357   0.029318   0.622719  -1.743906
    19  C   -0.292357   0.000187  -0.353081   0.001494   0.246014  -0.476040
    20  H   -0.016097   0.000000   0.015295   0.001012   0.001434   0.050518
    21  C   -0.236441  -0.000322   0.231266   0.001426  -0.605719   1.613662
    22  H    0.004120   0.000000   0.004977   0.000033  -0.001218   0.056836
    23  H    0.008699  -0.000000  -0.020828   0.000000   0.038489  -0.029485
    24  C   -0.089913  -0.000006   0.045516   0.000356  -0.197813  -0.175477
    25  H    0.000415  -0.000000  -0.000658   0.000000   0.001946   0.007117
    26  H   -0.001084   0.000000   0.001288  -0.000000  -0.005244  -0.029342
    27  H   -0.001077  -0.000000   0.002160   0.000000  -0.002780  -0.004465
    28  O   -0.004234   0.000000   0.000325   0.000002  -0.001989   0.044758
    29  O    0.001042  -0.000000   0.001945  -0.000000  -0.000165  -0.010018
    30  H   -0.000042   0.000000   0.000069  -0.000000  -0.000014  -0.003118
              13         14         15         16         17         18
     1  C   -0.469962   0.012060   0.101291   0.000769  -0.014338  -0.141758
     2  C    0.120141   0.048109  -0.300388   0.007945   0.153078   0.226993
     3  C    0.117450   0.000066  -0.395396  -0.000676  -0.121041  -0.123026
     4  H    0.000014  -0.000014   0.000738  -0.000001   0.000026   0.001694
     5  C    0.575008   0.001814  -1.860381   0.000996   0.087701  -0.705971
     6  H   -0.000283  -0.000003   0.002585   0.000000   0.000225  -0.002769
     7  C   -1.712784  -0.035859   1.117845   0.017010  -0.338779  -0.019025
     8  H    0.034586   0.002010  -0.003505  -0.000012  -0.000043   0.001311
     9  C   -0.992303  -0.000027  -0.359852  -0.030082  -0.110171  -1.355357
    10  H    0.000221   0.000014   0.005556  -0.000002   0.000904   0.029318
    11  C    2.154726   0.373053  -1.564722   0.006284  -0.332463   0.622719
    12  C   -2.134545  -0.016228  -2.382386  -0.013696  -0.511313  -1.743906
    13  C    9.908656  -0.054163   0.149789   0.450323  -0.164655   0.514533
    14  H   -0.054163   0.479061   0.047033  -0.007058  -0.007433   0.002382
    15  C    0.149789   0.047033  12.072213  -0.131973   0.669392   1.494178
    16  H    0.450323  -0.007058  -0.131973   0.478620   0.057774   0.010083
    17  C   -0.164655  -0.007433   0.669392   0.057774   7.848482  -0.027077
    18  C    0.514533   0.002382   1.494178   0.010083  -0.027077   7.949937
    19  C    0.011586  -0.001214  -0.778490   0.001577  -1.162618   1.167006
    20  H   -0.005092  -0.000002  -0.107513   0.000014  -0.026629   0.332483
    21  C   -1.692398   0.001273  -1.526420  -0.004717   0.583345  -1.436109
    22  H   -0.000484   0.000000  -0.006605  -0.000003   0.010909  -0.064903
    23  H    0.053277  -0.000007  -0.042771   0.002681   0.404324  -0.002139
    24  C   -0.492417   0.000222  -0.580752  -0.001334  -0.712073  -0.378905
    25  H    0.015147  -0.000000   0.011779  -0.000007   0.045269   0.034565
    26  H   -0.007748  -0.000000   0.053544   0.000084   0.096534  -0.018695
    27  H   -0.016384   0.000000  -0.017755   0.000005  -0.023374  -0.043776
    28  O   -0.020077   0.000000  -0.112483   0.000010  -0.253641  -0.039955
    29  O    0.002547  -0.000000   0.018945  -0.000003   0.080984   0.047901
    30  H    0.000085  -0.000000   0.004707   0.000000   0.012953  -0.010177
              19         20         21         22         23         24
     1  C   -0.054412   0.001512  -0.019776   0.000040   0.000127  -0.004800
     2  C   -0.093898  -0.004608  -0.053936   0.000257   0.000025   0.002637
     3  C    0.203483   0.039010  -0.115500  -0.001782   0.000118  -0.008430
     4  H    0.000135  -0.000001   0.000032  -0.000000  -0.000000   0.000001
     5  C    0.092303   0.109264  -0.281846  -0.006554  -0.001631  -0.061856
     6  H   -0.000749   0.000031  -0.000065   0.000000   0.000000  -0.000003
     7  C   -0.292357  -0.016097  -0.236441   0.004120   0.008699  -0.089913
     8  H    0.000187   0.000000  -0.000322   0.000000  -0.000000  -0.000006
     9  C   -0.353081   0.015295   0.231266   0.004977  -0.020828   0.045516
    10  H    0.001494   0.001012   0.001426   0.000033   0.000000   0.000356
    11  C    0.246014   0.001434  -0.605719  -0.001218   0.038489  -0.197813
    12  C   -0.476040   0.050518   1.613662   0.056836  -0.029485  -0.175477
    13  C    0.011586  -0.005092  -1.692398  -0.000484   0.053277  -0.492417
    14  H   -0.001214  -0.000002   0.001273   0.000000  -0.000007   0.000222
    15  C   -0.778490  -0.107513  -1.526420  -0.006605  -0.042771  -0.580752
    16  H    0.001577   0.000014  -0.004717  -0.000003   0.002681  -0.001334
    17  C   -1.162618  -0.026629   0.583345   0.010909   0.404324  -0.712073
    18  C    1.167006   0.332483  -1.436109  -0.064903  -0.002139  -0.378905
    19  C    8.116380  -0.014800  -0.077705   0.287088  -0.013626  -0.518966
    20  H   -0.014800   0.465259  -0.016199  -0.006010   0.000024   0.008642
    21  C   -0.077705  -0.016199  14.994324   0.050389  -0.011835  -4.279963
    22  H    0.287088  -0.006010   0.050389   0.447756  -0.000159   0.033616
    23  H   -0.013626   0.000024  -0.011835  -0.000159   0.478716  -0.026957
    24  C   -0.518966   0.008642  -4.279963   0.033616  -0.026957  11.985206
    25  H    0.094451  -0.000022   0.693765  -0.000366   0.000147  -0.504918
    26  H   -0.079305   0.000032  -0.685371   0.000476   0.005904   0.955852
    27  H   -0.091882   0.000074  -0.454403   0.000062   0.000135   0.956416
    28  O    0.056441   0.000037  -0.448355   0.009325   0.000049   0.647657
    29  O    0.097291  -0.000037  -0.131099  -0.006008  -0.000096  -0.145860
    30  H   -0.036889   0.000005   0.026970   0.000245  -0.000000   0.002359
              25         26         27         28         29         30
     1  C    0.000005  -0.000027  -0.000017   0.000007  -0.000013  -0.000000
     2  C    0.000009  -0.000042  -0.000052  -0.000385   0.000072  -0.000004
     3  C    0.000002   0.000013   0.000006   0.000559  -0.000262   0.000012
     4  H   -0.000000   0.000000   0.000000  -0.000000   0.000000   0.000000
     5  C    0.000181  -0.000370  -0.000475   0.003277  -0.001853   0.000125
     6  H    0.000000  -0.000000  -0.000000   0.000000  -0.000000  -0.000000
     7  C    0.000415  -0.001084  -0.001077  -0.004234   0.001042  -0.000042
     8  H   -0.000000   0.000000  -0.000000   0.000000  -0.000000   0.000000
     9  C   -0.000658   0.001288   0.002160   0.000325   0.001945   0.000069
    10  H    0.000000  -0.000000   0.000000   0.000002  -0.000000  -0.000000
    11  C    0.001946  -0.005244  -0.002780  -0.001989  -0.000165  -0.000014
    12  C    0.007117  -0.029342  -0.004465   0.044758  -0.010018  -0.003118
    13  C    0.015147  -0.007748  -0.016384  -0.020077   0.002547   0.000085
    14  H   -0.000000  -0.000000   0.000000   0.000000  -0.000000  -0.000000
    15  C    0.011779   0.053544  -0.017755  -0.112483   0.018945   0.004707
    16  H   -0.000007   0.000084   0.000005   0.000010  -0.000003   0.000000
    17  C    0.045269   0.096534  -0.023374  -0.253641   0.080984   0.012953
    18  C    0.034565  -0.018695  -0.043776  -0.039955   0.047901  -0.010177
    19  C    0.094451  -0.079305  -0.091882   0.056441   0.097291  -0.036889
    20  H   -0.000022   0.000032   0.000074   0.000037  -0.000037   0.000005
    21  C    0.693765  -0.685371  -0.454403  -0.448355  -0.131099   0.026970
    22  H   -0.000366   0.000476   0.000062   0.009325  -0.006008   0.000245
    23  H    0.000147   0.005904   0.000135   0.000049  -0.000096  -0.000000
    24  C   -0.504918   0.955852   0.956416   0.647657  -0.145860   0.002359
    25  H    0.877378  -0.129593  -0.110652  -0.186432   0.039376  -0.004320
    26  H   -0.129593   0.614221   0.022191   0.039578  -0.000367   0.001416
    27  H   -0.110652   0.022191   0.515298   0.046253  -0.015608   0.001278
    28  O   -0.186432   0.039578   0.046253   8.270365  -0.007867  -0.023968
    29  O    0.039376  -0.000367  -0.015608  -0.007867   8.123166   0.197296
    30  H   -0.004320   0.001416   0.001278  -0.023968   0.197296   0.536785
          Atomic-Atomic Spin Densities.
               1          2          3          4          5          6
     1  C    0.054214  -0.036118  -0.015928  -0.000153   0.021933  -0.000088
     2  C   -0.036118  -0.051099   0.029653   0.000163  -0.030469  -0.000003
     3  C   -0.015928   0.029653  -0.025629   0.000037   0.060590  -0.000290
     4  H   -0.000153   0.000163   0.000037  -0.000023  -0.000094  -0.000000
     5  C    0.021933  -0.030469   0.060590  -0.000094  -0.038570   0.000502
     6  H   -0.000088  -0.000003  -0.000290  -0.000000   0.000502  -0.000008
     7  C    0.038300   0.073182  -0.002163   0.000059   0.011242  -0.000130
     8  H   -0.000119  -0.000229   0.000083   0.000001  -0.000118   0.000000
     9  C    0.029310   0.040171  -0.056963  -0.000067   0.040545  -0.000055
    10  H    0.000176  -0.000194  -0.000662   0.000000  -0.000327   0.000012
    11  C   -0.017572   0.006743   0.016659   0.000048   0.004594   0.000022
    12  C    0.004562   0.012657  -0.015415  -0.000002   0.004796   0.000023
    13  C   -0.044121  -0.040177   0.013410   0.000015  -0.002216   0.000000
    14  H   -0.000357  -0.000053  -0.000004   0.000000  -0.000050  -0.000000
    15  C   -0.003845   0.009786  -0.014485  -0.000007  -0.037751  -0.000003
    16  H   -0.000092  -0.000070   0.000001   0.000000  -0.000183   0.000000
    17  C    0.004081  -0.018527   0.007281  -0.000003   0.016707   0.000011
    18  C   -0.016590   0.000837   0.007644   0.000007  -0.006109   0.000007
    19  C   -0.001567   0.006381  -0.001958   0.000000   0.012866  -0.000004
    20  H   -0.000423   0.000251  -0.000495   0.000000  -0.001225   0.000000
    21  C   -0.012184  -0.000072  -0.002973   0.000001  -0.037308   0.000004
    22  H   -0.000025  -0.000022  -0.000032   0.000000  -0.000729  -0.000000
    23  H   -0.000003   0.000278  -0.000071   0.000000  -0.000426  -0.000000
    24  C   -0.003790  -0.002955   0.000602   0.000000  -0.016424   0.000000
    25  H    0.000005   0.000014  -0.000004  -0.000000   0.000104   0.000000
    26  H   -0.000022  -0.000052   0.000005   0.000000  -0.000330  -0.000000
    27  H   -0.000015  -0.000015  -0.000012   0.000000  -0.000490  -0.000000
    28  O   -0.000030   0.000081  -0.000118   0.000000  -0.001271  -0.000000
    29  O    0.000009  -0.000006   0.000034  -0.000000   0.000351   0.000000
    30  H   -0.000000   0.000000  -0.000001   0.000000  -0.000013  -0.000000
               7          8          9         10         11         12
     1  C    0.038300  -0.000119   0.029310   0.000176  -0.017572   0.004562
     2  C    0.073182  -0.000229   0.040171  -0.000194   0.006743   0.012657
     3  C   -0.002163   0.000083  -0.056963  -0.000662   0.016659  -0.015415
     4  H    0.000059   0.000001  -0.000067   0.000000   0.000048  -0.000002
     5  C    0.011242  -0.000118   0.040545  -0.000327   0.004594   0.004796
     6  H   -0.000130   0.000000  -0.000055   0.000012   0.000022   0.000023
     7  C    0.106707   0.000505  -0.056074  -0.000262   0.131950  -0.040633
     8  H    0.000505  -0.000008  -0.000058  -0.000000  -0.000101   0.000032
     9  C   -0.056074  -0.000058   0.022893   0.001047   0.002034   0.007731
    10  H   -0.000262  -0.000000   0.001047  -0.000337  -0.000162   0.001134
    11  C    0.131950  -0.000101   0.002034  -0.000162   0.323800  -0.031629
    12  C   -0.040633   0.000032   0.007731   0.001134  -0.031629   0.171457
    13  C   -0.108569  -0.000025  -0.031715  -0.000105  -0.083882   0.005997
    14  H   -0.002186   0.000001  -0.000793  -0.000000  -0.001718   0.000239
    15  C   -0.036702   0.000027  -0.031711   0.000392  -0.175519  -0.078252
    16  H   -0.001967   0.000000  -0.000494  -0.000000  -0.005688   0.000176
    17  C   -0.014161  -0.000029   0.042580   0.000071  -0.010806   0.086784
    18  C   -0.018253   0.000018  -0.024864  -0.000601   0.001682   0.041211
    19  C    0.010319   0.000004  -0.005989  -0.000168   0.041179   0.054401
    20  H    0.000149   0.000000   0.001195  -0.000059  -0.000531  -0.007596
[...]
 ! A43   A(21,24,26)            92.8144         -DE/DX =   -0.0087              !
 ! A44   A(21,24,27)            89.9058         -DE/DX =   -0.006               !
 ! A45   A(21,24,28)            97.1162         -DE/DX =    0.0305              !
 ! A46   A(25,24,26)            84.4473         -DE/DX =    0.0014              !
 ! A47   A(25,24,27)            86.2874         -DE/DX =   -0.0054              !
 ! A48   A(25,24,28)            89.2751         -DE/DX =   -0.0122              !
 ! A49   A(26,24,27)           117.9197         -DE/DX =    0.0005              !
 ! A50   A(26,24,28)           118.1961         -DE/DX =   -0.0006              !
 ! A51   A(27,24,28)           122.9016         -DE/DX =   -0.0019              !
 ! A52   A(24,28,29)           108.9372         -DE/DX =    0.0095              !
 ! A53   A(28,29,30)           104.9731         -DE/DX =    0.0019              !
 ! A54   L(21,24,25,26,-1)     177.2616         -DE/DX =   -0.0073              !
 ! A55   L(21,24,25,26,-2)     174.197          -DE/DX =   -0.0169              !
 ! D1    D(3,1,2,7)              0.0569         -DE/DX =    0.0                 !
 ! D2    D(3,1,2,8)            179.9749         -DE/DX =    0.0                 !
 ! D3    D(4,1,2,7)           -179.922          -DE/DX =    0.0                 !
 ! D4    D(4,1,2,8)             -0.004          -DE/DX =    0.0                 !
 ! D5    D(2,1,3,5)             -0.0447         -DE/DX =    0.0                 !
 ! D6    D(2,1,3,6)           -179.988          -DE/DX =    0.0                 !
 ! D7    D(4,1,3,5)            179.9342         -DE/DX =    0.0                 !
 ! D8    D(4,1,3,6)             -0.009          -DE/DX =    0.0                 !
 ! D9    D(1,2,7,9)              0.0001         -DE/DX =    0.0                 !
 ! D10   D(1,2,7,11)           179.9193         -DE/DX =    0.0                 !
 ! D11   D(8,2,7,9)           -179.9175         -DE/DX =    0.0                 !
 ! D12   D(8,2,7,11)             0.0017         -DE/DX =    0.0                 !
 ! D13   D(1,3,5,9)             -0.0255         -DE/DX =    0.0                 !
 ! D14   D(1,3,5,10)          -179.9248         -DE/DX =    0.0                 !
 ! D15   D(6,3,5,9)            179.918          -DE/DX =    0.0                 !
 ! D16   D(6,3,5,10)             0.0187         -DE/DX =    0.0                 !
 ! D17   D(3,5,9,7)              0.0807         -DE/DX =    0.0                 !
 ! D18   D(3,5,9,12)          -179.7232         -DE/DX =   -0.0001              !
 ! D19   D(10,5,9,7)           179.9754         -DE/DX =    0.0                 !
 ! D20   D(10,5,9,12)            0.1716         -DE/DX =    0.0                 !
 ! D21   D(2,7,9,5)             -0.0678         -DE/DX =    0.0                 !
 ! D22   D(2,7,9,12)           179.744          -DE/DX =    0.0001              !
 ! D23   D(11,7,9,5)          -179.9872         -DE/DX =    0.0                 !
 ! D24   D(11,7,9,12)           -0.1754         -DE/DX =    0.0                 !
 ! D25   D(2,7,11,13)         -179.7718         -DE/DX =   -0.0001              !
 ! D26   D(2,7,11,14)            0.1074         -DE/DX =    0.0                 !
 ! D27   D(9,7,11,13)            0.1474         -DE/DX =    0.0                 !
 ! D28   D(9,7,11,14)         -179.9734         -DE/DX =    0.0                 !
 ! D29   D(5,9,12,15)          179.8213         -DE/DX =    0.0001              !
 ! D30   D(5,9,12,18)           -0.1247         -DE/DX =   -0.0001              !
 ! D31   D(7,9,12,15)            0.0195         -DE/DX =    0.0                 !
 ! D32   D(7,9,12,18)         -179.9265         -DE/DX =   -0.0001              !
 ! D33   D(7,11,13,15)           0.042          -DE/DX =    0.0                 !
 ! D34   D(7,11,13,16)         179.8628         -DE/DX =    0.0001              !
 ! D35   D(14,11,13,15)       -179.8381         -DE/DX =   -0.0001              !
 ! D36   D(14,11,13,16)         -0.0173         -DE/DX =    0.0                 !
 ! D37   D(9,12,15,13)           0.1661         -DE/DX =    0.0                 !
 ! D38   D(9,12,15,17)        -179.6258         -DE/DX =   -0.0002              !
 ! D39   D(18,12,15,13)       -179.885          -DE/DX =    0.0001              !
 ! D40   D(18,12,15,17)          0.3231         -DE/DX =    0.0                 !
 ! D41   D(9,12,18,19)         179.455          -DE/DX =    0.0003              !
 ! D42   D(9,12,18,20)          -0.3809         -DE/DX =    0.0002              !
 ! D43   D(15,12,18,19)         -0.4918         -DE/DX =    0.0001              !
 ! D44   D(15,12,18,20)        179.6723         -DE/DX =    0.0                 !
 ! D45   D(11,13,15,12)         -0.2001         -DE/DX =    0.0                 !
 ! D46   D(11,13,15,17)        179.5918         -DE/DX =    0.0002              !
 ! D47   D(16,13,15,12)        179.9807         -DE/DX =    0.0                 !
 ! D48   D(16,13,15,17)         -0.2274         -DE/DX =    0.0001              !
 ! D49   D(12,15,17,21)          0.5778         -DE/DX =    0.0003              !
 ! D50   D(12,15,17,23)        179.8288         -DE/DX =    0.0002              !
 ! D51   D(13,15,17,21)       -179.2139         -DE/DX =    0.0002              !
 ! D52   D(13,15,17,23)          0.0372         -DE/DX =    0.0001              !
 ! D53   D(15,17,21,19)         -1.2797         -DE/DX =   -0.0006              !
 ! D54   D(15,17,21,24)        179.5386         -DE/DX =    0.0004              !
 ! D55   D(23,17,21,19)        179.4768         -DE/DX =   -0.0005              !
 ! D56   D(23,17,21,24)          0.2951         -DE/DX =    0.0005              !
 ! D57   D(12,18,19,21)         -0.2291         -DE/DX =   -0.0004              !
 ! D58   D(12,18,19,22)        179.9885         -DE/DX =    0.0001              !
 ! D59   D(20,18,19,21)        179.6144         -DE/DX =   -0.0003              !
 ! D60   D(20,18,19,22)         -0.1681         -DE/DX =    0.0002              !
 ! D61   D(18,19,21,17)          1.1102         -DE/DX =    0.0006              !
 ! D62   D(18,19,21,24)       -179.6949         -DE/DX =   -0.0004              !
 ! D63   D(22,19,21,17)       -179.1102         -DE/DX =    0.0001              !
 ! D64   D(22,19,21,24)          0.0847         -DE/DX =   -0.0009              !
 ! D65   D(17,21,24,26)         -1.8994         -DE/DX =    0.0008              !
 ! D66   D(17,21,24,27)        116.0517         -DE/DX =    0.0003              !
 ! D67   D(17,21,24,28)       -120.7725         -DE/DX =   -0.0009              !
 ! D68   D(19,21,24,26)        178.9365         -DE/DX =    0.0018              !
 ! D69   D(19,21,24,27)        -63.1124         -DE/DX =    0.0013              !
 ! D70   D(19,21,24,28)         60.0634         -DE/DX =    0.0001              !
 ! D71   D(21,24,28,29)       -111.0829         -DE/DX =   -0.0041              !
 ! D72   D(25,24,28,29)         68.5425         -DE/DX =   -0.0057              !
 ! D73   D(26,24,28,29)        151.8476         -DE/DX =   -0.0107              !
 ! D74   D(27,24,28,29)        -16.5635         -DE/DX =    0.0088              !
 ! D75   D(24,28,29,30)       -127.827          -DE/DX =    0.0038              !
 --------------------------------------------------------------------------------
 GradGradGradGradGradGradGradGradGradGradGradGradGradGradGradGradGradGrad

                          Input orientation:                          
 ---------------------------------------------------------------------
 Center     Atomic      Atomic             Coordinates (Angstroms)
 Number     Number       Type             X           Y           Z
 ---------------------------------------------------------------------
      1          6           0       -0.243830    8.460770    5.918170
      2          6           0        0.370610    7.214230    5.825160
      3          6           0       -0.595000    9.152320    4.762440
      4          1           0       -0.448180    8.892540    6.889420
      5          6           0       -0.334410    8.605100    3.504150
      6          1           0       -1.072170   10.120970    4.840520
      7          6           0        0.641480    6.647020    4.569310
      8          1           0        0.636380    6.692730    6.737250
      9          6           0        0.290960    7.339740    3.375700
     10          1           0       -0.632820    9.198170    2.656100
     11          6           0        1.261250    5.395180    4.503020
     12          6           0        0.585570    6.738780    2.112670
     13          6           0        1.546230    4.812560    3.274360
     14          1           0        1.530140    4.863220    5.408320
     15          6           0        1.219390    5.467470    2.080790
     16          1           0        2.029850    3.842620    3.258520
     17          6           0        1.531210    4.854630    0.855550
     18          6           0        0.277870    7.352600    0.879290
     19          6           0        0.595010    6.738180   -0.331160
     20          1           0       -0.206140    8.312200    0.810990
     21          6           0        1.235470    5.480700   -0.377610
     22          1           0        0.335400    7.252630   -1.247430
     23          1           0        2.019290    3.886290    0.868490
     24          6           0        1.583850    4.832980   -1.739520
     25          1           0        1.815810    4.341040   -2.712570
     26          1           0        1.936030    3.885390   -1.290330
     27          1           0        0.517950    4.895480   -2.058020
     28          8           0        2.539220    5.842220   -2.009010
     29          8           0        2.056050    6.603620   -2.979060
     30          1           0        2.789140    6.657570   -3.643180
 ---------------------------------------------------------------------
                    Distance matrix (angstroms):
                    1          2          3          4          5
     1  C    0.000000
     2  C    1.392857   0.000000
     3  C    1.391860   2.412047   0.000000
     4  H    1.082364   2.149370   2.147810   0.000000
     5  C    2.420027   2.796187   1.396657   3.399356   0.000000
     6  H    2.145633   3.391204   1.082622   2.469088   2.151287
     7  C    2.427527   1.404371   2.800484   3.407731   2.433311
     8  H    2.138136   1.083745   3.386112   2.457354   3.879759
     9  C    2.829640   2.453966   2.448146   3.912000   1.417294
    10  H    3.366923   3.871154   2.107178   4.248353   1.077019
    11  C    3.696723   2.418726   4.198698   4.566025   3.721217
    12  C    4.258519   3.748979   3.773619   5.340848   2.503144
    13  C    4.848039   3.695495   5.062881   5.804530   4.239454
    14  H    4.043425   2.654339   4.830089   4.726820   4.593917
    15  C    5.081963   4.218045   4.905240   6.134722   3.779546
    16  H    5.794020   4.550656   6.111017   6.695204   5.322713
    17  C    6.464142   5.622431   6.185038   7.525310   4.955971
    18  C    5.185607   4.948674   4.368037   6.246617   2.972126
    19  C    6.536444   6.178775   5.760986   7.606989   4.365640
    20  H    5.109480   5.165276   4.058444   6.110866   2.712076
    21  C    7.120814   6.498266   6.576589   8.202747   5.224410
    22  H    7.289783   7.072782   6.371264   8.337364   4.985512
    23  H    7.179613   6.193699   7.051839   8.209905   5.895233
    24  C    8.668419   8.022885   8.104293   9.750271   6.738300
    25  H    9.782840   9.123413   9.210657  10.864622   7.839213
    26  H    8.811831   8.010113   8.413245   9.882526   7.100535
    27  H    8.769904   8.218445   8.116528   9.847161   6.739847
    28  O    8.800134   8.243755   8.162881   9.869705   6.803395
    29  O    9.375455   8.984867   8.570575  10.435383   7.193902
    30  H   10.191656   9.788188   9.398438  11.243264   8.039513
                    6          7          8          9         10
     6  H    0.000000
     7  C    3.883102   0.000000
     8  H    4.274290   2.168428   0.000000
     9  C    3.426231   1.423879   3.440633   0.000000
    10  H    2.411696   3.434033   4.954178   2.196578   0.000000
    11  C    5.281273   1.398432   2.658173   2.448188   4.632639
    12  C    4.650643   2.458989   4.625088   1.429403   2.797926
    13  C    6.122752   2.420891   4.044066   2.823581   4.935998
    14  H    5.893925   2.162313   2.431454   3.435151   5.571795
    15  C    5.875578   2.813903   4.850132   2.458489   4.204734
    16  H    7.179341   3.392698   4.708126   3.907342   6.011209
    17  C    7.098726   4.218565   6.226855   3.750353   5.176036
    18  C    5.017751   3.774428   5.905900   2.496477   2.718922
    19  C    6.400706   4.901538   7.068677   3.767643   4.059906
    20  H    4.500974   4.197172   6.201055   2.787566   2.090796
    21  C    7.354331   5.117142   7.242179   4.293654   5.149125
    22  H    6.875446   5.856186   8.009943   4.624164   4.467675
    23  H    8.012826   4.818305   6.650631   4.604296   6.200428
    24  C    8.849531   6.631752   8.729948   5.841309   6.579513
    25  H    9.939677   7.728025   9.809210   6.955890   7.642651
    26  H    9.247651   6.605894   8.603040   6.034122   7.099220
    27  H    8.799095   6.855994   8.977801   5.962486   6.485394
    28  O    8.846802   6.893723   8.991175   6.024312   6.564106
    29  O    9.127066   7.679895   9.819882   6.636293   6.761416
    30  H    9.943743   8.488672  10.601365   7.481373   7.605615
                   11         12         13         14         15
    11  C    0.000000
    12  C    2.824107   0.000000
    13  C    1.389340   2.445959   0.000000
    14  H    1.083906   3.907844   2.134622   0.000000
    15  C    2.423670   1.420906   1.400122   3.396195   0.000000
    16  H    2.133066   3.433171   1.083939   2.431661   2.164262
    17  C    3.697176   2.454507   2.419222   4.552778   1.404997
    18  C    4.234377   1.411623   3.714418   5.317641   2.425650
    19  C    5.061306   2.443848   4.196738   6.109957   2.796794
    20  H    4.928826   2.190166   4.624551   6.003797   3.425933
    21  C    4.881447   2.864722   3.725569   5.826242   2.458488
    22  H    6.113509   3.408357   5.278886   7.171868   3.878825
    23  H    4.007640   3.426403   2.621063   4.669445   2.147008
    24  C    6.276101   4.412256   5.014063   7.148106   3.889753
    25  H    7.313241   5.526806   6.011517   8.142674   4.959926
    26  H    6.024757   4.641765   4.674183   6.781800   3.792229
    27  H    6.621891   4.560371   5.431253   7.534707   4.236619
    28  O    6.651285   4.648528   5.473594   7.549402   4.313798
    29  O    7.620601   5.301537   6.524805   8.582174   5.252896
    30  H    8.383833   6.163775   7.266447   9.313132   6.053452
                   16         17         18         19         20
    16  H    0.000000
    17  C    2.654632   0.000000
    18  C    4.588042   2.794867   0.000000
    19  C    4.829993   2.415059   1.394015   0.000000
    20  H    5.564818   3.869775   1.076923   2.103304   0.000000
    21  C    4.066422   1.414252   2.449654   1.411950   3.392404
    22  H    5.899399   3.406302   2.129845   1.082408   2.377614
    23  H    2.390452   1.084468   3.879171   3.406026   4.954243
    24  C    5.114698   2.595694   3.861636   2.567308   4.670561
    25  H    5.995678   3.616110   4.933175   3.592735   5.681009
    26  H    4.550018   2.389164   4.413422   3.294959   5.347998
    27  H    5.626718   3.085005   3.837039   2.526564   4.519900
    28  O    5.657272   3.193293   3.967018   2.719904   4.646526
    29  O    6.821379   4.247194   4.313903   3.027230   4.732994
    30  H    7.492258   5.007150   5.219414   3.973686   5.616861
                   21         22         23         24         25
    21  C    0.000000
    22  H    2.169435   0.000000
    23  H    2.170088   4.317968   0.000000
    24  C    1.547808   2.766855   2.808478   0.000000
    25  H    2.662266   3.579889   3.615549   1.114736   0.000000
    26  H    1.966941   3.728560   2.160425   1.106223   1.498278
    27  H    1.918618   2.499307   3.440486   1.114222   1.555725
    28  O    2.119417   2.725084   3.517953   1.415600   1.808828
    29  O    2.949889   2.525944   4.710507   2.212374   2.290851
    30  H    3.803007   3.480597   5.350498   2.899271   2.679499
                   26         27         28         29         30
    26  H    0.000000
    27  H    1.902782   0.000000
    28  O    2.170143   2.232544   0.000000
    29  O    3.202341   2.476249   1.324455   0.000000
    30  H    3.734793   3.282681   1.843303   0.990650   0.000000
 Stoichiometry    C15H13O2(2)
 Framework group  C1[X(C15H13O2)]
 Deg. of freedom    84
 Full point group                 C1      NOp   1
 Largest Abelian subgroup         C1      NOp   1
 Largest concise Abelian subgroup C1      NOp   1
                         Standard orientation:                         
 ---------------------------------------------------------------------
 Center     Atomic      Atomic             Coordinates (Angstroms)
 Number     Number       Type             X           Y           Z
 ---------------------------------------------------------------------
      1          6           0        4.620426   -0.716051    0.187206
      2          6           0        4.059247    0.557854    0.235094
      3          6           0        3.804534   -1.830752    0.016805
      4          1           0        5.691420   -0.839828    0.282918
      5          6           0        2.421218   -1.682483   -0.106091
      6          1           0        4.245973   -2.818621   -0.019494
      7          6           0        2.670511    0.728016    0.113792
      8          1           0        4.712233    1.412366    0.368976
      9          6           0        1.819339   -0.400173   -0.059769
     10          1           0        1.854762   -2.589561   -0.233786
     11          6           0        2.131686    2.017361    0.167373
     12          6           0        0.409399   -0.194625   -0.173835
     13          6           0        0.761017    2.215017    0.055742
     14          1           0        2.774813    2.879845    0.299137
     15          6           0       -0.105671    1.128170   -0.111463
     16          1           0        0.375972    3.227096    0.104319
     17          6           0       -1.487407    1.362743   -0.210443
     18          6           0       -0.509907   -1.252173   -0.344567
     19          6           0       -1.879461   -1.009421   -0.437697
     20          1           0       -0.206246   -2.283508   -0.407020
     21          6           0       -2.406025    0.298669   -0.365360
     22          1           0       -2.539662   -1.857023   -0.569274
     23          1           0       -1.846134    2.384602   -0.153963
     24          6           0       -3.933395    0.530680   -0.460326
     25          1           0       -5.028486    0.716139   -0.555289
     26          1           0       -3.846898    1.633469   -0.470474
     27          1           0       -3.967404    0.000499   -1.439735
     28          8           0       -4.138806   -0.113639    0.783291
     29          8           0       -4.731758   -1.273025    0.541606
     30          1           0       -5.508904   -1.289171    1.155748
 ---------------------------------------------------------------------
 Rotational constants (GHZ):           1.3114261           0.2456161           0.2120824


 A MAN IS EXACTLY AS GREAT AS THE TIDE SURGING
 BENEATH HIM.      - BISMARCK
 Error termination request processed by link 9999.
 Error termination via Lnk1e in /shared/centos7/gaussian/g16/l9999.exe at Mon Oct 15 21:47:16 2018.
 Job cpu time:       0 days  4 hours 14 minutes 49.9 seconds.
 Elapsed time:       0 days  4 hours 14 minutes 54.7 seconds.
 File lengths (MBytes):  RWF=    672 Int=      0 D2E=      0 Chk=     64 Scr=     32
