 Entering Gaussian System, Link 0=g16
 Input=rxn930.com
 Output=rxn930.log
