 Entering Gaussian System, Link 0=g16
 Input=rxn938.com
 Output=rxn938.log
