 Entering Gaussian System, Link 0=g16
 Input=rxn907.com
 Output=rxn907.log
 Initial command:
 /shared/centos7/gaussian/g16/l1.exe "/scratch/dinius.ab/QMscratch/Gau-45426.inp" -scrdir="/scratch/dinius.ab/QMscratch/"
 Entering Link 1 = /shared/centos7/gaussian/g16/l1.exe PID=     45427.
  
 Copyright (c) 1988,1990,1992,1993,1995,1998,2003,2009,2016,
            Gaussian, Inc.  All Rights Reserved.
  
 This is part of the Gaussian(R) 16 program.  It is based on
 the Gaussian(R) 09 system (copyright 2009, Gaussian, Inc.),
 the Gaussian(R) 03 system (copyright 2003, Gaussian, Inc.),
 the Gaussian(R) 98 system (copyright 1998, Gaussian, Inc.),
 the Gaussian(R) 94 system (copyright 1995, Gaussian, Inc.),
 the Gaussian 92(TM) system (copyright 1992, Gaussian, Inc.),
 the Gaussian 90(TM) system (copyright 1990, Gaussian, Inc.),
 the Gaussian 88(TM) system (copyright 1988, Gaussian, Inc.),
 the Gaussian 86(TM) system (copyright 1986, Carnegie Mellon
 University), and the Gaussian 82(TM) system (copyright 1983,
 Carnegie Mellon University). Gaussian is a federally registered
 trademark of Gaussian, Inc.
  
 This software contains proprietary and confidential information,
 including trade secrets, belonging to Gaussian, Inc.
  
 This software is provided under written license and may be
 used, copied, transmitted, or stored only in accord with that
 written license.
  
 The following legend is applicable only to US Government
 contracts under FAR:
  
                    RESTRICTED RIGHTS LEGEND
  
 Use, reproduction and disclosure by the US Government is
 subject to restrictions as set forth in subparagraphs (a)
 and (c) of the Commercial Computer Software - Restricted
 Rights clause in FAR 52.227-19.
  
 Gaussian, Inc.
 340 Quinnipiac St., Bldg. 40, Wallingford CT 06492
  
  
 ---------------------------------------------------------------
 Warning -- This program may not be used in any manner that
 competes with the business of Gaussian, Inc. or will provide
 assistance to any competitor of Gaussian, Inc.  The licensee
 of this program is prohibited from giving any competitor of
 Gaussian, Inc. access to this program.  By using this program,
 the user acknowledges that Gaussian, Inc. is engaged in the
 business of creating and licensing software in the field of
 computational chemistry and represents and warrants to the
 licensee that it is not a competitor of Gaussian, Inc. and that
 it will not use this program in any manner prohibited above.
 ---------------------------------------------------------------
  

 Cite this work as:
 Gaussian 16, Revision A.03,
 M. J. Frisch, G. W. Trucks, H. B. Schlegel, G. E. Scuseria, 
 M. A. Robb, J. R. Cheeseman, G. Scalmani, V. Barone, 
 G. A. Petersson, H. Nakatsuji, X. Li, M. Caricato, A. V. Marenich, 
 J. Bloino, B. G. Janesko, R. Gomperts, B. Mennucci, H. P. Hratchian, 
 J. V. Ortiz, A. F. Izmaylov, J. L. Sonnenberg, D. Williams-Young, 
 F. Ding, F. Lipparini, F. Egidi, J. Goings, B. Peng, A. Petrone, 
 T. Henderson, D. Ranasinghe, V. G. Zakrzewski, J. Gao, N. Rega, 
 G. Zheng, W. Liang, M. Hada, M. Ehara, K. Toyota, R. Fukuda, 
 J. Hasegawa, M. Ishida, T. Nakajima, Y. Honda, O. Kitao, H. Nakai, 
 T. Vreven, K. Throssell, J. A. Montgomery, Jr., J. E. Peralta, 
 F. Ogliaro, M. J. Bearpark, J. J. Heyd, E. N. Brothers, K. N. Kudin, 
 V. N. Staroverov, T. A. Keith, R. Kobayashi, J. Normand, 
 K. Raghavachari, A. P. Rendell, J. C. Burant, S. S. Iyengar, 
 J. Tomasi, M. Cossi, J. M. Millam, M. Klene, C. Adamo, R. Cammi, 
 J. W. Ochterski, R. L. Martin, K. Morokuma, O. Farkas, 
 J. B. Foresman, and D. J. Fox, Gaussian, Inc., Wallingford CT, 2016.
 
 ******************************************
 Gaussian 16:  EM64L-G16RevA.03 25-Dec-2016
                17-Jan-2019 
 ******************************************
 ----------------------------------------------------------------------
 #m062x/6-311+g(2df,2p) Opt=(ModRedun,Loose,maxcycle=1000) Int(Grid=SG1
 ) freq
 ----------------------------------------------------------------------
 1/6=1000,7=-1,18=120,19=15,26=2,38=1/1,3;
 2/9=110,12=2,17=6,18=5,40=1/2;
 3/5=4,6=6,7=214,11=2,25=1,30=1,71=1,74=-55,75=1/1,2,3;
 4//1;
 5/5=2,38=5/2;
 6/7=2,8=2,9=2,10=2,28=1/1;
 7//1,2,3,16;
 1/6=1000,7=-1,18=20,19=15,26=2/3(2);
 2/9=110/2;
 99//99;
 2/9=110/2;
 3/5=4,6=6,7=214,11=2,25=1,30=1,71=1,74=-55,75=1/1,2,3;
 4/5=5,16=3,69=1/1;
 5/5=2,38=5/2;
 7//1,2,3,16;
 1/6=1000,7=-1,18=20,19=15,26=2/3(-5);
 2/9=110/2;
 6/7=2,8=2,9=2,10=2,19=2,28=1/1;
 99/9=1/99;
 -----
 Title
 -----
 Symbolic Z-matrix:
 Charge =  0 Multiplicity = 1
 C                    -9.10581   2.56702   3.64917 
 C                    -9.40931   1.54366   2.75468 
 C                    -7.78088   2.95214   3.84198 
 H                    -9.90325   3.07255   4.18832 
 C                    -8.387     0.89946   2.06103 
 H                    -10.44355   1.24756   2.59741 
 C                    -7.05621   1.26818   2.26461 
 H                    -8.63142   0.09906   1.36664 
 C                    -6.75346   2.30624   3.15193 
 H                    -7.55257   3.76712   4.52489 
 C                    -5.31917   2.78395   3.30169 
 C                    -5.97548   0.5565    1.52916 
 C                    -4.70729   0.79113   1.84859 
 H                    -6.22571  -0.16957   0.75916 
 C                    -4.25592   1.71821   2.96358 
 H                    -3.91998   0.25566   1.32272 
 H                    -5.13932   3.20768   4.29317 
 H                    -4.0789    1.11301   3.85625 
 C                    -2.93178   2.41462   2.59151 
 H                    -2.15015   1.67291   2.40769 
 H                    -2.59703   3.07264   3.39969 
 H                    -3.05606   3.01326   1.68517 
 O                    -2.02185   3.787     4.01154 
 O                    -0.83529   4.34245   4.67873 
 H                    -0.51078   4.92336   3.96613 
 
 The following ModRedundant input section has been read:
 B      21      23 F                                                           
 

 GradGradGradGradGradGradGradGradGradGradGradGradGradGradGradGradGradGrad
 Berny optimization.
 Initialization pass.
                           ----------------------------
                           !    Initial Parameters    !
                           ! (Angstroms and Degrees)  !
 --------------------------                            --------------------------
 ! Name  Definition              Value          Derivative Info.                !
 --------------------------------------------------------------------------------
 ! R1    R(1,2)                  1.3927         estimate D2E/DX2                !
 ! R2    R(1,3)                  1.3932         estimate D2E/DX2                !
 ! R3    R(1,4)                  1.0873         estimate D2E/DX2                !
 ! R4    R(2,5)                  1.3933         estimate D2E/DX2                !
 ! R5    R(2,6)                  1.0872         estimate D2E/DX2                !
 ! R6    R(3,9)                  1.396          estimate D2E/DX2                !
 ! R7    R(3,10)                 1.0875         estimate D2E/DX2                !
 ! R8    R(5,7)                  1.3959         estimate D2E/DX2                !
 ! R9    R(5,8)                  1.0875         estimate D2E/DX2                !
 ! R10   R(7,9)                  1.3988         estimate D2E/DX2                !
 ! R11   R(7,12)                 1.4884         estimate D2E/DX2                !
 ! R12   R(9,11)                 1.5192         estimate D2E/DX2                !
 ! R13   R(11,15)                1.5429         estimate D2E/DX2                !
 ! R14   R(11,17)                1.0931         estimate D2E/DX2                !
 ! R15   R(12,13)                1.3287         estimate D2E/DX2                !
 ! R16   R(12,14)                1.0875         estimate D2E/DX2                !
 ! R17   R(13,15)                1.5187         estimate D2E/DX2                !
 ! R18   R(13,16)                1.0877         estimate D2E/DX2                !
 ! R19   R(15,18)                1.0929         estimate D2E/DX2                !
 ! R20   R(15,19)                1.5417         estimate D2E/DX2                !
 ! R21   R(19,20)                1.0931         estimate D2E/DX2                !
 ! R22   R(19,21)                1.0946         estimate D2E/DX2                !
 ! R23   R(19,22)                1.0933         estimate D2E/DX2                !
 ! R24   R(21,23)                1.1025         Frozen                          !
 ! R25   R(23,24)                1.4702         estimate D2E/DX2                !
 ! R26   R(24,25)                0.975          estimate D2E/DX2                !
 ! A1    A(2,1,3)              119.9521         estimate D2E/DX2                !
 ! A2    A(2,1,4)              120.0212         estimate D2E/DX2                !
 ! A3    A(3,1,4)              120.0232         estimate D2E/DX2                !
 ! A4    A(1,2,5)              119.9745         estimate D2E/DX2                !
 ! A5    A(1,2,6)              120.0227         estimate D2E/DX2                !
 ! A6    A(5,2,6)              120.0028         estimate D2E/DX2                !
 ! A7    A(1,3,9)              120.2382         estimate D2E/DX2                !
 ! A8    A(1,3,10)             119.5854         estimate D2E/DX2                !
 ! A9    A(9,3,10)             120.1726         estimate D2E/DX2                !
 ! A10   A(2,5,7)              120.3177         estimate D2E/DX2                !
 ! A11   A(2,5,8)              119.5572         estimate D2E/DX2                !
 ! A12   A(7,5,8)              120.1219         estimate D2E/DX2                !
 ! A13   A(5,7,9)              119.6635         estimate D2E/DX2                !
 ! A14   A(5,7,12)             119.5962         estimate D2E/DX2                !
 ! A15   A(9,7,12)             120.7395         estimate D2E/DX2                !
 ! A16   A(3,9,7)              119.8426         estimate D2E/DX2                !
 ! A17   A(3,9,11)             120.0412         estimate D2E/DX2                !
 ! A18   A(7,9,11)             120.0166         estimate D2E/DX2                !
 ! A19   A(9,11,15)            114.3186         estimate D2E/DX2                !
 ! A20   A(9,11,17)            111.5089         estimate D2E/DX2                !
 ! A21   A(15,11,17)           110.6787         estimate D2E/DX2                !
 ! A22   A(7,12,13)            119.3284         estimate D2E/DX2                !
 ! A23   A(7,12,14)            120.1334         estimate D2E/DX2                !
 ! A24   A(13,12,14)           120.5131         estimate D2E/DX2                !
 ! A25   A(12,13,15)           124.6097         estimate D2E/DX2                !
 ! A26   A(12,13,16)           119.1898         estimate D2E/DX2                !
 ! A27   A(15,13,16)           116.1255         estimate D2E/DX2                !
 ! A28   A(11,15,13)           112.1929         estimate D2E/DX2                !
 ! A29   A(11,15,18)           108.368          estimate D2E/DX2                !
 ! A30   A(11,15,19)           109.4355         estimate D2E/DX2                !
 ! A31   A(13,15,18)           108.0452         estimate D2E/DX2                !
 ! A32   A(13,15,19)           110.7222         estimate D2E/DX2                !
 ! A33   A(18,15,19)           107.9476         estimate D2E/DX2                !
 ! A34   A(15,19,20)           110.3793         estimate D2E/DX2                !
 ! A35   A(15,19,21)           110.8561         estimate D2E/DX2                !
 ! A36   A(15,19,22)           110.4741         estimate D2E/DX2                !
 ! A37   A(20,19,21)           108.263          estimate D2E/DX2                !
 ! A38   A(20,19,22)           108.2653         estimate D2E/DX2                !
 ! A39   A(21,19,22)           108.5223         estimate D2E/DX2                !
 ! A40   A(19,21,23)           163.4942         estimate D2E/DX2                !
 ! A41   A(21,23,24)           156.5892         estimate D2E/DX2                !
 ! A42   A(23,24,25)            99.3255         estimate D2E/DX2                !
 ! D1    D(3,1,2,5)              0.4742         estimate D2E/DX2                !
 ! D2    D(3,1,2,6)           -179.5121         estimate D2E/DX2                !
 ! D3    D(4,1,2,5)            179.7901         estimate D2E/DX2                !
 ! D4    D(4,1,2,6)             -0.1962         estimate D2E/DX2                !
 ! D5    D(2,1,3,9)             -0.676          estimate D2E/DX2                !
 ! D6    D(2,1,3,10)           178.6143         estimate D2E/DX2                !
 ! D7    D(4,1,3,9)           -179.9919         estimate D2E/DX2                !
 ! D8    D(4,1,3,10)            -0.7016         estimate D2E/DX2                !
 ! D9    D(1,2,5,7)              0.4473         estimate D2E/DX2                !
 ! D10   D(1,2,5,8)            179.8005         estimate D2E/DX2                !
 ! D11   D(6,2,5,7)           -179.5664         estimate D2E/DX2                !
 ! D12   D(6,2,5,8)             -0.2132         estimate D2E/DX2                !
 ! D13   D(1,3,9,7)             -0.0424         estimate D2E/DX2                !
 ! D14   D(1,3,9,11)           176.3305         estimate D2E/DX2                !
 ! D15   D(10,3,9,7)          -179.3285         estimate D2E/DX2                !
 ! D16   D(10,3,9,11)           -2.9556         estimate D2E/DX2                !
 ! D17   D(2,5,7,9)             -1.1621         estimate D2E/DX2                !
 ! D18   D(2,5,7,12)           179.1555         estimate D2E/DX2                !
 ! D19   D(8,5,7,9)            179.4884         estimate D2E/DX2                !
 ! D20   D(8,5,7,12)            -0.194          estimate D2E/DX2                !
 ! D21   D(5,7,9,3)              0.9571         estimate D2E/DX2                !
 ! D22   D(5,7,9,11)          -175.4167         estimate D2E/DX2                !
 ! D23   D(12,7,9,3)          -179.3642         estimate D2E/DX2                !
 ! D24   D(12,7,9,11)            4.262          estimate D2E/DX2                !
 ! D25   D(5,7,12,13)         -171.5164         estimate D2E/DX2                !
 ! D26   D(5,7,12,14)            6.6691         estimate D2E/DX2                !
 ! D27   D(9,7,12,13)            8.8047         estimate D2E/DX2                !
 ! D28   D(9,7,12,14)         -173.0098         estimate D2E/DX2                !
 ! D29   D(3,9,11,15)          157.514          estimate D2E/DX2                !
 ! D30   D(3,9,11,17)           31.0292         estimate D2E/DX2                !
 ! D31   D(7,9,11,15)          -26.1194         estimate D2E/DX2                !
 ! D32   D(7,9,11,17)         -152.6043         estimate D2E/DX2                !
 ! D33   D(9,11,15,13)          33.88           estimate D2E/DX2                !
 ! D34   D(9,11,15,18)         -85.3269         estimate D2E/DX2                !
 ! D35   D(9,11,15,19)         157.1911         estimate D2E/DX2                !
 ! D36   D(17,11,15,13)        160.7944         estimate D2E/DX2                !
 ! D37   D(17,11,15,18)         41.5876         estimate D2E/DX2                !
 ! D38   D(17,11,15,19)        -75.8944         estimate D2E/DX2                !
 ! D39   D(7,12,13,15)           2.1171         estimate D2E/DX2                !
 ! D40   D(7,12,13,16)         178.8384         estimate D2E/DX2                !
 ! D41   D(14,12,13,15)       -176.0614         estimate D2E/DX2                !
 ! D42   D(14,12,13,16)          0.6599         estimate D2E/DX2                !
 ! D43   D(12,13,15,11)        -23.7323         estimate D2E/DX2                !
 ! D44   D(12,13,15,18)         95.6638         estimate D2E/DX2                !
 ! D45   D(12,13,15,19)       -146.3178         estimate D2E/DX2                !
 ! D46   D(16,13,15,11)        159.4557         estimate D2E/DX2                !
 ! D47   D(16,13,15,18)        -81.1482         estimate D2E/DX2                !
 ! D48   D(16,13,15,19)         36.8702         estimate D2E/DX2                !
 ! D49   D(11,15,19,20)        176.5801         estimate D2E/DX2                !
 ! D50   D(11,15,19,21)         56.628          estimate D2E/DX2                !
 ! D51   D(11,15,19,22)        -63.7112         estimate D2E/DX2                !
 ! D52   D(13,15,19,20)        -59.2434         estimate D2E/DX2                !
 ! D53   D(13,15,19,21)       -179.1954         estimate D2E/DX2                !
 ! D54   D(13,15,19,22)         60.4653         estimate D2E/DX2                !
 ! D55   D(18,15,19,20)         58.8346         estimate D2E/DX2                !
 ! D56   D(18,15,19,21)        -61.1175         estimate D2E/DX2                !
 ! D57   D(18,15,19,22)        178.5433         estimate D2E/DX2                !
 ! D58   D(15,19,21,23)        179.8167         estimate D2E/DX2                !
 ! D59   D(20,19,21,23)         58.6089         estimate D2E/DX2                !
 ! D60   D(22,19,21,23)        -58.69           estimate D2E/DX2                !
 ! D61   D(19,21,23,24)        -51.0907         estimate D2E/DX2                !
 ! D62   D(21,23,24,25)         90.7865         estimate D2E/DX2                !
 --------------------------------------------------------------------------------
 Trust Radius=3.00D-01 FncErr=1.00D-05 GrdErr=1.00D-04 EigMax=2.50D+02 EigMin=1.00D-04
 Number of steps in this run=    150 maximum allowed number of steps=    150.
 GradGradGradGradGradGradGradGradGradGradGradGradGradGradGradGradGradGrad

                          Input orientation:                          
 ---------------------------------------------------------------------
 Center     Atomic      Atomic             Coordinates (Angstroms)
 Number     Number       Type             X           Y           Z
 ---------------------------------------------------------------------
      1          6           0       -9.105810    2.567020    3.649170
      2          6           0       -9.409310    1.543660    2.754680
      3          6           0       -7.780880    2.952140    3.841980
      4          1           0       -9.903250    3.072550    4.188320
      5          6           0       -8.387000    0.899460    2.061030
      6          1           0      -10.443550    1.247560    2.597410
      7          6           0       -7.056210    1.268180    2.264610
      8          1           0       -8.631420    0.099060    1.366640
      9          6           0       -6.753460    2.306240    3.151930
     10          1           0       -7.552570    3.767120    4.524890
     11          6           0       -5.319170    2.783950    3.301690
     12          6           0       -5.975480    0.556500    1.529160
     13          6           0       -4.707290    0.791130    1.848590
     14          1           0       -6.225710   -0.169570    0.759160
     15          6           0       -4.255920    1.718210    2.963580
     16          1           0       -3.919980    0.255660    1.322720
     17          1           0       -5.139320    3.207680    4.293170
     18          1           0       -4.078900    1.113010    3.856250
     19          6           0       -2.931780    2.414620    2.591510
     20          1           0       -2.150150    1.672910    2.407690
     21          1           0       -2.597030    3.072640    3.399690
     22          1           0       -3.056060    3.013260    1.685170
     23          8           0       -2.021850    3.787000    4.011540
     24          8           0       -0.835290    4.342450    4.678730
     25          1           0       -0.510780    4.923360    3.966130
 ---------------------------------------------------------------------
                    Distance matrix (angstroms):
                    1          2          3          4          5
     1  C    0.000000
     2  C    1.392656   0.000000
     3  C    1.393174   2.412016   0.000000
     4  H    1.087269   2.153324   2.153812   0.000000
     5  C    2.412392   1.393292   2.784360   3.398043   0.000000
     6  H    2.153305   1.087226   3.397699   2.480626   2.153665
     7  C    2.793717   2.419326   2.418463   3.880985   1.395851
     8  H    3.394969   2.149101   3.871794   4.291978   1.087455
     9  C    2.418430   2.791572   1.396047   3.403309   2.416101
    10  H    2.149344   3.394834   1.087513   2.474147   3.871738
    11  C    3.808733   4.308919   2.525909   4.677947   3.808165
    12  C    4.282009   3.777244   3.787835   5.369266   2.493178
    13  C    5.073741   4.847297   4.253296   6.138177   3.687429
    14  H    4.912846   4.129475   4.654826   5.982874   2.740231
    15  C    4.971111   5.160575   3.836602   5.935197   4.307060
    16  H    6.135763   5.817405   5.340807   7.207361   4.573166
    17  H    4.069180   4.834121   2.691972   4.766999   4.567029
    18  H    5.237065   5.460054   4.133674   6.154114   4.672060
    19  C    6.265821   6.537858   5.036504   7.182205   5.686523
    20  H    7.121932   7.268598   5.949684   8.077140   6.294180
    21  H    6.533155   7.011489   5.204079   7.348659   6.327596
    22  H    6.376198   6.608128   5.194178   7.290630   5.747029
    23  O    7.197371   7.822202   5.821698   7.915690   7.256550
    24  O    8.521364   9.222202   7.132625   9.169572   8.702578
    25  H    8.917810   9.595510   7.533623   9.575665   9.047432
                    6          7          8          9         10
     6  H    0.000000
     7  C    3.403712   0.000000
     8  H    2.473391   2.157424   0.000000
     9  C    3.878796   1.398772   3.403768   0.000000
    10  H    4.291984   3.405868   4.959146   2.158186   0.000000
    11  C    5.395904   2.527924   4.682313   1.519152   2.729637
    12  C    4.645683   1.488406   2.699941   2.510025   4.665800
    13  C    5.802908   2.432709   4.013731   2.860256   4.910674
    14  H    4.814311   2.241257   2.495723   3.483318   5.607032
    15  C    6.216298   2.921080   4.931213   2.572734   4.183733
    16  H    6.720541   3.427578   4.714246   3.947087   5.981635
    17  H    5.903603   3.398703   5.515692   2.172664   2.488060
    18  H    6.489341   3.379611   5.286936   3.012165   4.422416
    19  C    7.601891   4.293263   6.272800   3.864072   5.188344
    20  H    8.306467   4.924805   6.750381   4.705897   6.168824
    21  H    8.095829   4.942547   7.027754   4.233753   5.128914
    22  H    7.650156   4.402528   6.299100   4.040053   5.371305
    23  O    8.909183   5.894150   8.017656   5.031870   5.554529
    24  O   10.306740   7.347037   9.473961   6.442205   6.743628
    25  H   10.679177   7.687533   9.796735   6.817866   7.157926
                   11         12         13         14         15
    11  C    0.000000
    12  C    2.921325   0.000000
    13  C    2.541108   1.328681   0.000000
    14  H    4.001194   1.087517   2.101286   0.000000
    15  C    1.542926   2.522700   1.518689   3.507599   0.000000
    16  H    3.502329   2.087631   1.087715   2.411392   2.223585
    17  H    1.093127   3.920162   3.464439   5.007523   2.183283
    18  H    2.153566   3.053206   2.128187   3.980675   1.092915
    19  C    2.518013   3.720928   2.517953   4.570068   1.541678
    20  H    3.475102   4.080605   2.762081   4.766820   2.178379
    21  H    2.739159   4.609096   3.473384   5.536393   2.185541
    22  H    2.790589   3.818772   2.773288   4.586347   2.179713
    23  O    3.518851   5.677106   4.567842   6.626074   3.220121
    24  O    4.942706   7.118621   5.967742   8.048477   4.639944
    25  H    5.304637   7.407512   6.258594   8.299579   5.030325
                   16         17         18         19         20
    16  H    0.000000
    17  H    4.361741   0.000000
    18  H    2.679380   2.388102   0.000000
    19  C    2.692114   2.897900   2.147007   0.000000
    20  H    2.513574   3.853011   2.476265   1.093101   0.000000
    21  H    3.741574   2.698107   2.498907   1.094624   1.772854
    22  H    2.912402   3.343566   3.061166   1.093283   1.771792
    23  O    4.827319   3.183323   3.377246   2.174370   2.656722
    24  O    6.122089   4.467777   4.650458   3.531046   3.743384
    25  H    6.355917   4.947110   5.221333   3.747612   3.960012
                   21         22         23         24         25
    21  H    0.000000
    22  H    1.775898   0.000000
    23  O    1.102498   2.660876   0.000000
    24  O    2.520335   3.957268   1.470235   0.000000
    25  H    2.845779   3.915317   1.891219   0.974968   0.000000
 Stoichiometry    C11H12O2
 Framework group  C1[X(C11H12O2)]
 Deg. of freedom    69
 Full point group                 C1      NOp   1
 Largest Abelian subgroup         C1      NOp   1
 Largest concise Abelian subgroup C1      NOp   1
                         Standard orientation:                         
 ---------------------------------------------------------------------
 Center     Atomic      Atomic             Coordinates (Angstroms)
 Number     Number       Type             X           Y           Z
 ---------------------------------------------------------------------
      1          6           0        3.221373   -1.768773    0.011938
      2          6           0        3.933790   -0.572254   -0.005268
      3          6           0        1.828508   -1.749363   -0.009988
      4          1           0        3.751984   -2.717579    0.031224
      5          6           0        3.252873    0.642968   -0.034398
      6          1           0        5.020889   -0.586233    0.003798
      7          6           0        1.857263    0.668778   -0.037068
      8          1           0        3.815921    1.573256   -0.044405
      9          6           0        1.142643   -0.533668   -0.034964
     10          1           0        1.278535   -2.687514   -0.019244
     11          6           0       -0.372580   -0.517391   -0.142942
     12          6           0        1.146239    1.976313   -0.049299
     13          6           0       -0.171478    2.002161    0.119065
     14          1           0        1.706324    2.901266   -0.165317
     15          6           0       -1.032599    0.777609    0.374718
     16          1           0       -0.686340    2.960256    0.128781
     17          1           0       -0.817791   -1.394692    0.333562
     18          1           0       -1.175522    0.683604    1.454162
     19          6           0       -2.420681    0.941383   -0.275800
     20          1           0       -2.927706    1.822573    0.125821
     21          1           0       -3.048186    0.065929   -0.080810
     22          1           0       -2.323765    1.065197   -1.357717
     23          8           0       -3.887891   -0.648004   -0.054369
     24          8           0       -5.272098   -1.095594    0.158292
     25          1           0       -5.626545   -0.943862   -0.737201
 ---------------------------------------------------------------------
 Rotational constants (GHZ):           1.7748082           0.3493305           0.2946858
 Standard basis: 6-311+G(2df,2p) (5D, 7F)
 There are   615 symmetry adapted cartesian basis functions of A   symmetry.
 There are   550 symmetry adapted basis functions of A   symmetry.
   550 basis functions,   808 primitive gaussians,   615 cartesian basis functions
    47 alpha electrons       47 beta electrons
       nuclear repulsion energy       714.6409073082 Hartrees.
 NAtoms=   25 NActive=   25 NUniq=   25 SFac= 1.00D+00 NAtFMM=   60 NAOKFM=F Big=F
 Integral buffers will be    131072 words long.
 Raffenetti 2 integral format.
 Two-electron integral symmetry is turned on.
 One-electron integrals computed using PRISM.
 NBasis=   550 RedAO= T EigKep=  1.27D-06  NBF=   550
 NBsUse=   549 1.00D-06 EigRej=  5.94D-07 NBFU=   549
 ExpMin= 4.38D-02 ExpMax= 8.59D+03 ExpMxC= 1.30D+03 IAcc=2 IRadAn=         4 AccDes= 0.00D+00
 Harris functional with IExCor= 1009 and IRadAn=       4 diagonalized for initial guess.
 HarFok:  IExCor= 1009 AccDes= 0.00D+00 IRadAn=         4 IDoV= 1 UseB2=F ITyADJ=14
 ICtDFT=  3500011 ScaDFX=  1.000000  1.000000  1.000000  1.000000
 FoFCou: FMM=F IPFlag=           0 FMFlag=      100000 FMFlg1=           0
         NFxFlg=           0 DoJE=T BraDBF=F KetDBF=T FulRan=T
         wScrn=  0.000000 ICntrl=       500 IOpCl=  0 I1Cent=   200000004 NGrid=           0
         NMat0=    1 NMatS0=      1 NMatT0=    0 NMatD0=    1 NMtDS0=    0 NMtDT0=    0
 Petite list used in FoFCou.
 Requested convergence on RMS density matrix=1.00D-08 within 128 cycles.
 Requested convergence on MAX density matrix=1.00D-06.
 Requested convergence on             energy=1.00D-06.
 No special actions if energy rises.
 Rare condition: small coef for last iteration:  0.000D+00
 Restarting incremental Fock formation.
 SCF Done:  E(RM062X) =  -576.427695459     A.U. after   22 cycles
            NFock= 22  Conv=0.38D-08     -V/T= 2.0038

 **********************************************************************

            Population analysis using the SCF density.

 **********************************************************************

 Orbital symmetries:
       Occupied  (A) (A) (A) (A) (A) (A) (A) (A) (A) (A) (A) (A)
                 (A) (A) (A) (A) (A) (A) (A) (A) (A) (A) (A) (A)
                 (A) (A) (A) (A) (A) (A) (A) (A) (A) (A) (A) (A)
                 (A) (A) (A) (A) (A) (A) (A) (A) (A) (A) (A)
       Virtual   (A) (A) (A) (A) (A) (A) (A) (A) (A) (A) (A) (A)
                 (A) (A) (A) (A) (A) (A) (A) (A) (A) (A) (A) (A)
                 (A) (A) (A) (A) (A) (A) (A) (A) (A) (A) (A) (A)
                 (A) (A) (A) (A) (A) (A) (A) (A) (A) (A) (A) (A)
                 (A) (A) (A) (A) (A) (A) (A) (A) (A) (A) (A) (A)
                 (A) (A) (A) (A) (A) (A) (A) (A) (A) (A) (A) (A)
                 (A) (A) (A) (A) (A) (A) (A) (A) (A) (A) (A) (A)
                 (A) (A) (A) (A) (A) (A) (A) (A) (A) (A) (A) (A)
                 (A) (A) (A) (A) (A) (A) (A) (A) (A) (A) (A) (A)
                 (A) (A) (A) (A) (A) (A) (A) (A) (A) (A) (A) (A)
                 (A) (A) (A) (A) (A) (A) (A) (A) (A) (A) (A) (A)
                 (A) (A) (A) (A) (A) (A) (A) (A) (A) (A) (A) (A)
                 (A) (A) (A) (A) (A) (A) (A) (A) (A) (A) (A) (A)
                 (A) (A) (A) (A) (A) (A) (A) (A) (A) (A) (A) (A)
                 (A) (A) (A) (A) (A) (A) (A) (A) (A) (A) (A) (A)
                 (A) (A) (A) (A) (A) (A) (A) (A) (A) (A) (A) (A)
                 (A) (A) (A) (A) (A) (A) (A) (A) (A) (A) (A) (A)
                 (A) (A) (A) (A) (A) (A) (A) (A) (A) (A) (A) (A)
                 (A) (A) (A) (A) (A) (A) (A) (A) (A) (A) (A) (A)
                 (A) (A) (A) (A) (A) (A) (A) (A) (A) (A) (A) (A)
                 (A) (A) (A) (A) (A) (A) (A) (A) (A) (A) (A) (A)
                 (A) (A) (A) (A) (A) (A) (A) (A) (A) (A) (A) (A)
                 (A) (A) (A) (A) (A) (A) (A) (A) (A) (A) (A) (A)
                 (A) (A) (A) (A) (A) (A) (A) (A) (A) (A) (A) (A)
                 (A) (A) (A) (A) (A) (A) (A) (A) (A) (A) (A) (A)
                 (A) (A) (A) (A) (A) (A) (A) (A) (A) (A) (A) (A)
                 (A) (A) (A) (A) (A) (A) (A) (A) (A) (A) (A) (A)
                 (A) (A) (A) (A) (A) (A) (A) (A) (A) (A) (A) (A)
                 (A) (A) (A) (A) (A) (A) (A) (A) (A) (A) (A) (A)
                 (A) (A) (A) (A) (A) (A) (A) (A) (A) (A) (A) (A)
                 (A) (A) (A) (A) (A) (A) (A) (A) (A) (A) (A) (A)
                 (A) (A) (A) (A) (A) (A) (A) (A) (A) (A) (A) (A)
                 (A) (A) (A) (A) (A) (A) (A) (A) (A) (A) (A) (A)
                 (A) (A) (A) (A) (A) (A) (A) (A) (A) (A) (A) (A)
                 (A) (A) (A) (A) (A) (A) (A) (A) (A) (A) (A) (A)
                 (A) (A) (A) (A) (A) (A) (A) (A) (A) (A) (A) (A)
                 (A) (A) (A) (A) (A) (A) (A) (A) (A) (A) (A) (A)
                 (A) (A) (A) (A) (A) (A) (A) (A) (A) (A) (A) (A)
                 (A) (A) (A) (A) (A) (A) (A) (A) (A) (A) (A) (A)
                 (A) (A) (A) (A) (A) (A) (A) (A) (A) (A) (A) (A)
                 (A) (A) (A) (A) (A) (A) (A) (A) (A) (A) (A) (A)
                 (A) (A) (A) (A) (A) (A) (A) (A) (A) (A)
 The electronic state is 1-A.
 Alpha  occ. eigenvalues --  -19.62234 -19.57707 -10.62314 -10.59890 -10.59809
 Alpha  occ. eigenvalues --  -10.58683 -10.58525 -10.58416 -10.57943 -10.57937
 Alpha  occ. eigenvalues --  -10.57631 -10.57404 -10.50673  -1.14411  -1.01597
 Alpha  occ. eigenvalues --   -0.95688  -0.93639  -0.90409  -0.88085  -0.85055
 Alpha  occ. eigenvalues --   -0.77838  -0.73069  -0.71595  -0.70365  -0.62404
 Alpha  occ. eigenvalues --   -0.61343  -0.59044  -0.56681  -0.55212  -0.53931
 Alpha  occ. eigenvalues --   -0.52884  -0.51631  -0.50628  -0.49040  -0.48459
 Alpha  occ. eigenvalues --   -0.45891  -0.45540  -0.43462  -0.42127  -0.41330
 Alpha  occ. eigenvalues --   -0.40039  -0.39069  -0.36191  -0.32460  -0.31275
 Alpha  occ. eigenvalues --   -0.29779  -0.22154
 Alpha virt. eigenvalues --   -0.14091  -0.03387  -0.00852  -0.00459   0.00638
 Alpha virt. eigenvalues --    0.01326   0.02730   0.02974   0.04029   0.04421
 Alpha virt. eigenvalues --    0.04662   0.05399   0.05740   0.05865   0.06139
 Alpha virt. eigenvalues --    0.07824   0.08588   0.09356   0.09699   0.10011
 Alpha virt. eigenvalues --    0.10463   0.11256   0.11820   0.12061   0.12377
 Alpha virt. eigenvalues --    0.13021   0.13474   0.14625   0.15268   0.15436
 Alpha virt. eigenvalues --    0.15680   0.16444   0.17100   0.17398   0.17463
 Alpha virt. eigenvalues --    0.17772   0.18492   0.18971   0.19312   0.19643
 Alpha virt. eigenvalues --    0.19808   0.20484   0.20607   0.20935   0.21571
 Alpha virt. eigenvalues --    0.21819   0.22197   0.22375   0.22885   0.23438
 Alpha virt. eigenvalues --    0.24426   0.24469   0.25008   0.25143   0.25575
 Alpha virt. eigenvalues --    0.25704   0.26636   0.26913   0.28043   0.28204
 Alpha virt. eigenvalues --    0.28477   0.28698   0.29614   0.30383   0.30802
 Alpha virt. eigenvalues --    0.31652   0.33256   0.33682   0.33785   0.35316
 Alpha virt. eigenvalues --    0.36205   0.37322   0.37807   0.39235   0.40771
 Alpha virt. eigenvalues --    0.41187   0.43608   0.44418   0.45801   0.46729
 Alpha virt. eigenvalues --    0.47297   0.48508   0.49034   0.49573   0.51082
 Alpha virt. eigenvalues --    0.51939   0.52582   0.53452   0.54031   0.54252
 Alpha virt. eigenvalues --    0.55131   0.55583   0.56325   0.57086   0.57407
 Alpha virt. eigenvalues --    0.58376   0.58828   0.59534   0.59960   0.60271
 Alpha virt. eigenvalues --    0.61893   0.62734   0.62998   0.63303   0.64131
 Alpha virt. eigenvalues --    0.64599   0.65384   0.65789   0.65943   0.66706
 Alpha virt. eigenvalues --    0.66964   0.67419   0.67945   0.68338   0.69066
 Alpha virt. eigenvalues --    0.69516   0.70297   0.70770   0.71408   0.71822
 Alpha virt. eigenvalues --    0.72824   0.73231   0.74067   0.74810   0.76442
 Alpha virt. eigenvalues --    0.77246   0.78108   0.79272   0.79414   0.79874
 Alpha virt. eigenvalues --    0.80528   0.81325   0.82208   0.83313   0.84968
 Alpha virt. eigenvalues --    0.86633   0.87638   0.88234   0.88450   0.89874
 Alpha virt. eigenvalues --    0.91015   0.91985   0.94231   0.95650   0.96371
 Alpha virt. eigenvalues --    0.97730   0.98299   0.99164   1.00637   1.01287
 Alpha virt. eigenvalues --    1.01584   1.02876   1.04209   1.06286   1.06497
 Alpha virt. eigenvalues --    1.07044   1.07501   1.09127   1.09682   1.10712
 Alpha virt. eigenvalues --    1.11698   1.11908   1.13960   1.14350   1.15652
 Alpha virt. eigenvalues --    1.16441   1.17644   1.18036   1.18728   1.19762
 Alpha virt. eigenvalues --    1.21044   1.22935   1.23186   1.25285   1.25531
 Alpha virt. eigenvalues --    1.25894   1.28130   1.29248   1.29864   1.29991
 Alpha virt. eigenvalues --    1.30673   1.31401   1.32368   1.32822   1.33980
 Alpha virt. eigenvalues --    1.34337   1.34720   1.35798   1.36474   1.37473
 Alpha virt. eigenvalues --    1.38091   1.38810   1.40163   1.41509   1.42158
 Alpha virt. eigenvalues --    1.43440   1.44116   1.44422   1.45955   1.46611
 Alpha virt. eigenvalues --    1.47366   1.48784   1.49666   1.50804   1.51214
 Alpha virt. eigenvalues --    1.53437   1.53541   1.54827   1.56040   1.58711
 Alpha virt. eigenvalues --    1.61306   1.62516   1.63950   1.65080   1.65650
 Alpha virt. eigenvalues --    1.66437   1.67839   1.68444   1.69086   1.69354
 Alpha virt. eigenvalues --    1.72292   1.72933   1.74150   1.75480   1.75941
 Alpha virt. eigenvalues --    1.76446   1.78489   1.81705   1.84150   1.85218
 Alpha virt. eigenvalues --    1.86925   1.90154   1.92442   1.95258   1.97113
 Alpha virt. eigenvalues --    1.99558   2.01693   2.04092   2.12124   2.14819
 Alpha virt. eigenvalues --    2.25979   2.28704   2.30840   2.41967   2.45596
 Alpha virt. eigenvalues --    2.48192   2.51192   2.51853   2.54719   2.56028
 Alpha virt. eigenvalues --    2.56655   2.58965   2.61825   2.64290   2.65114
 Alpha virt. eigenvalues --    2.66861   2.67448   2.68273   2.69149   2.70543
 Alpha virt. eigenvalues --    2.71291   2.72347   2.73493   2.73738   2.73882
 Alpha virt. eigenvalues --    2.75413   2.75811   2.76764   2.78152   2.78850
 Alpha virt. eigenvalues --    2.80020   2.80590   2.81312   2.81386   2.82698
 Alpha virt. eigenvalues --    2.83190   2.84013   2.84509   2.85356   2.85954
 Alpha virt. eigenvalues --    2.86815   2.87518   2.88276   2.89190   2.90380
 Alpha virt. eigenvalues --    2.91294   2.91824   2.94666   2.95322   2.97930
 Alpha virt. eigenvalues --    2.98854   3.00350   3.02414   3.02827   3.04072
 Alpha virt. eigenvalues --    3.06371   3.07605   3.09708   3.10723   3.11367
 Alpha virt. eigenvalues --    3.11566   3.13767   3.14832   3.15185   3.15402
 Alpha virt. eigenvalues --    3.16747   3.17270   3.17638   3.19401   3.21198
 Alpha virt. eigenvalues --    3.21594   3.22314   3.23656   3.24919   3.25542
 Alpha virt. eigenvalues --    3.26629   3.27132   3.28735   3.30241   3.32423
 Alpha virt. eigenvalues --    3.33153   3.33905   3.34176   3.35344   3.36529
 Alpha virt. eigenvalues --    3.37548   3.37823   3.38907   3.39817   3.41773
 Alpha virt. eigenvalues --    3.41909   3.42699   3.44437   3.44811   3.45597
 Alpha virt. eigenvalues --    3.47279   3.47843   3.49676   3.50347   3.51966
 Alpha virt. eigenvalues --    3.53141   3.55371   3.56575   3.57718   3.58882
 Alpha virt. eigenvalues --    3.62194   3.62968   3.63731   3.65017   3.65515
 Alpha virt. eigenvalues --    3.67408   3.67545   3.69111   3.70387   3.70698
 Alpha virt. eigenvalues --    3.71675   3.72315   3.73187   3.74148   3.74982
 Alpha virt. eigenvalues --    3.76212   3.78428   3.79528   3.80548   3.81587
 Alpha virt. eigenvalues --    3.82213   3.83247   3.85641   3.85943   3.88549
 Alpha virt. eigenvalues --    3.89871   3.91652   3.93332   3.94316   3.95473
 Alpha virt. eigenvalues --    3.96103   3.98664   3.99500   4.01877   4.03847
 Alpha virt. eigenvalues --    4.04449   4.05444   4.06367   4.09236   4.10189
 Alpha virt. eigenvalues --    4.11838   4.12196   4.13701   4.14681   4.16003
 Alpha virt. eigenvalues --    4.17951   4.19607   4.20479   4.22209   4.23825
 Alpha virt. eigenvalues --    4.26796   4.27230   4.28411   4.28747   4.29736
 Alpha virt. eigenvalues --    4.30677   4.31213   4.33235   4.33321   4.35306
 Alpha virt. eigenvalues --    4.37236   4.37613   4.38962   4.39388   4.41591
 Alpha virt. eigenvalues --    4.42414   4.42817   4.44150   4.46166   4.47231
 Alpha virt. eigenvalues --    4.48728   4.50437   4.52496   4.54786   4.56003
 Alpha virt. eigenvalues --    4.57097   4.58432   4.61852   4.65089   4.66616
 Alpha virt. eigenvalues --    4.68885   4.69919   4.72026   4.72612   4.77191
 Alpha virt. eigenvalues --    4.79001   4.80239   4.82017   4.83386   4.88943
 Alpha virt. eigenvalues --    4.91435   4.96261   4.97341   4.98435   5.00906
 Alpha virt. eigenvalues --    5.03586   5.05166   5.09132   5.12076   5.13114
 Alpha virt. eigenvalues --    5.14855   5.15702   5.16386   5.19355   5.24637
 Alpha virt. eigenvalues --    5.25688   5.29277   5.30719   5.31672   5.36922
 Alpha virt. eigenvalues --    5.39821   5.42509   5.43416   5.43858   5.47436
 Alpha virt. eigenvalues --    5.55319   5.55815   5.59153   5.62382   5.65097
 Alpha virt. eigenvalues --    5.65641   5.67165   5.71355   5.75137   5.76291
 Alpha virt. eigenvalues --    5.83040   5.97464   6.03284   6.07309   6.09317
 Alpha virt. eigenvalues --    6.45685   6.50515   6.82499   6.85976   6.96141
 Alpha virt. eigenvalues --    7.00648   7.05741   7.10996   7.27077   7.37829
 Alpha virt. eigenvalues --    7.52513   7.55558   7.92593   8.21220  23.88150
 Alpha virt. eigenvalues --   24.15612  24.32990  24.38877  24.47977  24.52640
 Alpha virt. eigenvalues --   24.55485  24.70903  24.74108  24.92817  25.14052
 Alpha virt. eigenvalues --   50.06781  50.12051
          Condensed to atoms (all electrons):
               1          2          3          4          5          6
     1  C    6.985466  -0.196084  -0.093713   0.336738   0.097408   0.024096
     2  C   -0.196084   6.657331  -0.424889   0.021887  -0.157136   0.349206
     3  C   -0.093713  -0.424889   6.790751  -0.015471   0.572634   0.015735
     4  H    0.336738   0.021887  -0.015471   0.474775   0.011380  -0.006262
     5  C    0.097408  -0.157136   0.572634   0.011380   7.958505  -0.024587
     6  H    0.024096   0.349206   0.015735  -0.006262  -0.024587   0.469768
     7  C    0.160162  -0.102848  -1.322507  -0.033378  -2.227392   0.029683
     8  H   -0.000220   0.017191  -0.011993  -0.000091   0.408808  -0.006060
     9  C    0.107997   0.542339  -1.129885   0.042344  -1.551507  -0.026611
    10  H    0.022324   0.002554   0.397991  -0.005836  -0.012325  -0.000085
    11  C   -1.879396   0.711395   1.622800   0.014729  -1.286692   0.000687
    12  C    0.617409  -0.805834  -0.350237  -0.000233   2.737444   0.010344
    13  C    0.132336  -0.266755   0.372105  -0.000634  -0.872345  -0.000597
    14  H    0.000784   0.013708  -0.000430  -0.000002   0.040913  -0.000004
    15  C   -0.074402  -0.049961  -0.387256   0.000222   0.384571   0.000355
    16  H   -0.001222   0.001933   0.000338   0.000000   0.018818  -0.000000
    17  H    0.047897  -0.003762   0.092157  -0.000020   0.001361  -0.000002
    18  H   -0.001212  -0.002020   0.014490  -0.000000  -0.016760  -0.000000
    19  C   -0.017344   0.004274   0.079328   0.000022  -0.027841   0.000003
    20  H    0.000278   0.000153  -0.000544   0.000000   0.001770  -0.000000
    21  H   -0.000052   0.000167  -0.006398   0.000000   0.002386  -0.000000
    22  H   -0.000053  -0.000278   0.003467   0.000000  -0.004132  -0.000000
    23  O    0.000338  -0.000062   0.002645  -0.000000  -0.000850   0.000000
    24  O   -0.000180   0.000009  -0.000659  -0.000000   0.000051   0.000000
    25  H    0.000013  -0.000001   0.000161   0.000000  -0.000007   0.000000
               7          8          9         10         11         12
     1  C    0.160162  -0.000220   0.107997   0.022324  -1.879396   0.617409
     2  C   -0.102848   0.017191   0.542339   0.002554   0.711395  -0.805834
     3  C   -1.322507  -0.011993  -1.129885   0.397991   1.622800  -0.350237
     4  H   -0.033378  -0.000091   0.042344  -0.005836   0.014729  -0.000233
     5  C   -2.227392   0.408808  -1.551507  -0.012325  -1.286692   2.737444
     6  H    0.029683  -0.006060  -0.026611  -0.000085   0.000687   0.010344
     7  C   15.769584  -0.038633  -2.866774  -0.039917  -0.805135  -2.614503
     8  H   -0.038633   0.472947  -0.061965   0.000033   0.006859   0.035064
     9  C   -2.866774  -0.061965  19.616963  -0.043532  -7.395354  -1.913461
    10  H   -0.039917   0.000033  -0.043532   0.460645   0.035048   0.006223
    11  C   -0.805135   0.006859  -7.395354   0.035048  19.219980  -2.771459
    12  C   -2.614503   0.035064  -1.913461   0.006223  -2.771459  12.058733
    13  C   -0.199510   0.010469   1.218184  -0.002750   0.198342  -2.368731
    14  H   -0.008251   0.002046  -0.065562   0.000008  -0.013634   0.373490
    15  C    0.065144   0.002686  -0.727380   0.003624  -1.187123   1.060282
    16  H    0.025030  -0.000028  -0.036797  -0.000002   0.015399   0.024546
    17  H   -0.098176   0.000008   0.059086   0.001678   0.285068  -0.006195
    18  H   -0.020851  -0.000004  -0.076765  -0.000056   0.106988  -0.074162
    19  C   -0.142663  -0.000008  -0.195800   0.000953   0.261115  -0.203598
    20  H    0.005061   0.000000   0.006771   0.000001   0.024212   0.066591
    21  H    0.009321   0.000000   0.060859   0.000007  -0.038357   0.010201
    22  H   -0.003768  -0.000000  -0.003641  -0.000008  -0.001258  -0.058904
    23  O   -0.000345  -0.000000   0.031731  -0.000011  -0.036159  -0.004590
    24  O   -0.000904  -0.000000  -0.012502  -0.000000  -0.025427   0.000128
    25  H   -0.000139  -0.000000   0.001207  -0.000000   0.001056  -0.000248
              13         14         15         16         17         18
     1  C    0.132336   0.000784  -0.074402  -0.001222   0.047897  -0.001212
     2  C   -0.266755   0.013708  -0.049961   0.001933  -0.003762  -0.002020
     3  C    0.372105  -0.000430  -0.387256   0.000338   0.092157   0.014490
     4  H   -0.000634  -0.000002   0.000222   0.000000  -0.000020  -0.000000
     5  C   -0.872345   0.040913   0.384571   0.018818   0.001361  -0.016760
     6  H   -0.000597  -0.000004   0.000355  -0.000000  -0.000002  -0.000000
     7  C   -0.199510  -0.008251   0.065144   0.025030  -0.098176  -0.020851
     8  H    0.010469   0.002046   0.002686  -0.000028   0.000008  -0.000004
     9  C    1.218184  -0.065562  -0.727380  -0.036797   0.059086  -0.076765
    10  H   -0.002750   0.000008   0.003624  -0.000002   0.001678  -0.000056
    11  C    0.198342  -0.013634  -1.187123   0.015399   0.285068   0.106988
    12  C   -2.368731   0.373490   1.060282   0.024546  -0.006195  -0.074162
    13  C    9.326716   0.033053  -1.685423   0.314139   0.039456  -0.059067
    14  H    0.033053   0.469153  -0.002154  -0.007344   0.000020  -0.000425
    15  C   -1.685423  -0.002154   7.983215   0.005209  -0.071200   0.501929
    16  H    0.314139  -0.007344   0.005209   0.466357  -0.000120  -0.001439
    17  H    0.039456   0.000020  -0.071200  -0.000120   0.451142  -0.006785
    18  H   -0.059067  -0.000425   0.501929  -0.001439  -0.006785   0.474192
    19  C    0.345319   0.000601  -0.269475  -0.001781  -0.000842  -0.046780
    20  H   -0.048497  -0.000009  -0.039242   0.003052  -0.000038  -0.007566
    21  H   -0.017731   0.000028  -0.071154   0.000242   0.007142  -0.010938
    22  H    0.024702  -0.000081   0.005821  -0.001577   0.000277   0.005749
    23  O   -0.010425  -0.000009   0.104713  -0.000100  -0.003007   0.007658
    24  O    0.014739   0.000000  -0.018730   0.000016  -0.000286  -0.002048
    25  H   -0.000334  -0.000000   0.002723  -0.000000   0.000037  -0.000010
              19         20         21         22         23         24
     1  C   -0.017344   0.000278  -0.000052  -0.000053   0.000338  -0.000180
     2  C    0.004274   0.000153   0.000167  -0.000278  -0.000062   0.000009
     3  C    0.079328  -0.000544  -0.006398   0.003467   0.002645  -0.000659
     4  H    0.000022   0.000000   0.000000   0.000000  -0.000000  -0.000000
     5  C   -0.027841   0.001770   0.002386  -0.004132  -0.000850   0.000051
     6  H    0.000003  -0.000000  -0.000000  -0.000000   0.000000   0.000000
     7  C   -0.142663   0.005061   0.009321  -0.003768  -0.000345  -0.000904
     8  H   -0.000008   0.000000   0.000000  -0.000000  -0.000000  -0.000000
     9  C   -0.195800   0.006771   0.060859  -0.003641   0.031731  -0.012502
    10  H    0.000953   0.000001   0.000007  -0.000008  -0.000011  -0.000000
    11  C    0.261115   0.024212  -0.038357  -0.001258  -0.036159  -0.025427
    12  C   -0.203598   0.066591   0.010201  -0.058904  -0.004590   0.000128
    13  C    0.345319  -0.048497  -0.017731   0.024702  -0.010425   0.014739
    14  H    0.000601  -0.000009   0.000028  -0.000081  -0.000009   0.000000
    15  C   -0.269475  -0.039242  -0.071154   0.005821   0.104713  -0.018730
    16  H   -0.001781   0.003052   0.000242  -0.001577  -0.000100   0.000016
    17  H   -0.000842  -0.000038   0.007142   0.000277  -0.003007  -0.000286
    18  H   -0.046780  -0.007566  -0.010938   0.005749   0.007658  -0.002048
    19  C    6.099061   0.354600   0.189086   0.418328  -0.134978   0.133530
    20  H    0.354600   0.527560  -0.015166  -0.033165   0.004311  -0.000358
    21  H    0.189086  -0.015166   0.450677   0.003863  -0.168454  -0.013629
    22  H    0.418328  -0.033165   0.003863   0.496342  -0.009837  -0.005333
    23  O   -0.134978   0.004311  -0.168454  -0.009837   8.890317  -0.118153
    24  O    0.133530  -0.000358  -0.013629  -0.005333  -0.118153   8.152304
    25  H   -0.009217  -0.000041   0.004752   0.000486  -0.030013   0.221474
              25
     1  C    0.000013
     2  C   -0.000001
     3  C    0.000161
     4  H    0.000000
     5  C   -0.000007
     6  H    0.000000
     7  C   -0.000139
     8  H   -0.000000
     9  C    0.001207
    10  H   -0.000000
    11  C    0.001056
    12  C   -0.000248
    13  C   -0.000334
    14  H   -0.000000
    15  C    0.002723
    16  H   -0.000000
    17  H    0.000037
    18  H   -0.000010
    19  C   -0.009217
    20  H   -0.000041
    21  H    0.004752
    22  H    0.000486
    23  O   -0.030013
    24  O    0.221474
    25  H    0.559804
 Mulliken charges:
               1
     1  C   -0.269369
     2  C   -0.312517
     3  C   -0.220620
     4  H    0.159830
     5  C   -0.054475
     6  H    0.164332
     7  C    0.461709
     8  H    0.162889
     9  C    0.420056
    10  H    0.173434
    11  C   -1.063686
    12  C    0.171698
    13  C   -0.496762
    14  H    0.164099
    15  C    0.463006
    16  H    0.175332
    17  H    0.205105
    18  H    0.215881
    19  C   -0.835892
    20  H    0.150264
    21  H    0.603150
    22  H    0.163002
    23  O   -0.524720
    24  O   -0.324040
    25  H    0.248295
 Sum of Mulliken charges =  -0.00000
 Mulliken charges with hydrogens summed into heavy atoms:
               1
     1  C   -0.109539
     2  C   -0.148184
     3  C   -0.047186
     5  C    0.108415
     7  C    0.461709
     9  C    0.420056
    11  C   -0.858581
    12  C    0.335797
    13  C   -0.321430
    15  C    0.678887
    19  C    0.080524
    23  O   -0.524720
    24  O   -0.075746
 Electronic spatial extent (au):  <R**2>=           3544.8112
 Charge=             -0.0000 electrons
 Dipole moment (field-independent basis, Debye):
    X=              8.6080    Y=              1.8070    Z=             -0.6999  Tot=              8.8234
 Quadrupole moment (field-independent basis, Debye-Ang):
   XX=            -90.4347   YY=            -69.8405   ZZ=            -80.3363
   XY=             -9.8179   XZ=              7.3455   YZ=              1.3350
 Traceless Quadrupole moment (field-independent basis, Debye-Ang):
   XX=            -10.2309   YY=             10.3633   ZZ=             -0.1324
   XY=             -9.8179   XZ=              7.3455   YZ=              1.3350
 Octapole moment (field-independent basis, Debye-Ang**2):
  XXX=            127.4973  YYY=             -1.8144  ZZZ=              1.5120  XYY=             14.7900
  XXY=             27.4849  XXZ=            -49.2726  XZZ=            -26.3818  YZZ=             -2.5028
  YYZ=             -0.1602  XYZ=             -9.7325
 Hexadecapole moment (field-independent basis, Debye-Ang**3):
 XXXX=          -3695.4609 YYYY=           -772.8017 ZZZZ=           -116.2757 XXXY=           -135.6184
 XXXZ=            291.9676 YYYX=             -7.9642 YYYZ=              0.3738 ZZZX=              5.2280
 ZZZY=              1.7769 XXYY=           -741.0904 XXZZ=           -637.7463 YYZZ=           -176.7277
 XXYZ=             46.4432 YYXZ=              2.7868 ZZXY=             16.9797
 N-N= 7.146409073082D+02 E-N=-2.772722064063D+03  KE= 5.742320437087D+02
 Calling FoFJK, ICntrl=      2127 FMM=F ISym2X=0 I1Cent= 0 IOpClX= 0 NMat=1 NMatS=1 NMatT=0.
 ***** Axes restored to original set *****
 -------------------------------------------------------------------
 Center     Atomic                   Forces (Hartrees/Bohr)
 Number     Number              X              Y              Z
 -------------------------------------------------------------------
      1        6           0.012161579    0.011236638    0.010058224
      2        6           0.004683010   -0.009385043   -0.009068824
      3        6          -0.025933011    0.006376668    0.005362666
      4        1           0.004087895   -0.002148042   -0.001803949
      5        6          -0.011297788    0.000938922    0.004907118
      6        1           0.003975023    0.001105784    0.000181775
      7        6           0.010929033   -0.030653259   -0.032778730
      8        1           0.002719241    0.003168379    0.002549939
      9        6           0.066718951    0.040618406   -0.001721984
     10        1           0.000544949   -0.003329710   -0.003182598
     11        6          -0.047753292   -0.099209110    0.030884099
     12        6          -0.025634202    0.017730168    0.012455200
     13        6           0.020523116    0.004003618    0.012865166
     14        1          -0.002920738    0.003758981    0.003076161
     15        6          -0.030086765    0.026905879   -0.029283755
     16        1          -0.000895707    0.001418027    0.003272958
     17        1           0.004098886    0.023401587   -0.011819526
     18        1           0.002054812    0.003244701    0.006923573
     19        6          -0.017390118   -0.046756711   -0.061182720
     20        1          -0.001850483    0.000183176    0.000706728
     21        1          -0.014005522   -0.037165190   -0.015962569
     22        1          -0.000554950    0.000644045    0.000358161
     23        8           0.054146404    0.095254440    0.083437059
     24        8          -0.005091870   -0.004526911   -0.021593536
     25        1          -0.003228452   -0.006815442    0.011359363
 -------------------------------------------------------------------
 Cartesian Forces:  Max     0.099209110 RMS     0.027233962

 GradGradGradGradGradGradGradGradGradGradGradGradGradGradGradGradGradGrad
 Berny optimization.
 FormGI is forming the generalized inverse of G from B-inverse, IUseBI=4.
 Internal  Forces:  Max     0.118898546 RMS     0.015459290
 Search for a local minimum.
 Step number   1 out of a maximum of  150
 All quantities printed in internal units (Hartrees-Bohrs-Radians)
 Mixed Optimization -- RFO/linear search
 Second derivative matrix not updated -- first step.
 ITU=  0
     Eigenvalues ---    0.00230   0.00230   0.00230   0.00366   0.00549
     Eigenvalues ---    0.01149   0.01365   0.01613   0.01777   0.01820
     Eigenvalues ---    0.02116   0.02157   0.02159   0.02161   0.02179
     Eigenvalues ---    0.02181   0.02183   0.02328   0.04157   0.04758
     Eigenvalues ---    0.05168   0.05295   0.06463   0.10344   0.11151
     Eigenvalues ---    0.13711   0.15936   0.15993   0.15998   0.15999
     Eigenvalues ---    0.15999   0.16000   0.16000   0.16000   0.16000
     Eigenvalues ---    0.16262   0.19094   0.21999   0.22096   0.22689
     Eigenvalues ---    0.23978   0.24629   0.25000   0.27548   0.28371
     Eigenvalues ---    0.29560   0.30044   0.32915   0.34284   0.34436
     Eigenvalues ---    0.34454   0.34457   0.34478   0.35078   0.35101
     Eigenvalues ---    0.35102   0.35108   0.35130   0.35135   0.35712
     Eigenvalues ---    0.40767   0.42216   0.45517   0.46461   0.46541
     Eigenvalues ---    0.46797   0.52375   0.577181000.000001000.00000
     Eigenvalues --- 1000.000001000.000001000.000001000.000001000.00000
     Eigenvalues --- 1000.000001000.000001000.000001000.000001000.00000
     Eigenvalues --- 1000.000001000.000001000.000001000.000001000.00000
     Eigenvalues --- 1000.000001000.000001000.000001000.000001000.00000
     Eigenvalues --- 1000.000001000.000001000.000001000.000001000.00000
     Eigenvalues --- 1000.000001000.000001000.000001000.000001000.00000
     Eigenvalues --- 1000.000001000.000001000.000001000.000001000.00000
     Eigenvalues --- 1000.000001000.000001000.000001000.000001000.00000
     Eigenvalues --- 1000.000001000.000001000.000001000.000001000.00000
     Eigenvalues --- 1000.000001000.000001000.000001000.000001000.00000
     Eigenvalues --- 1000.000001000.000001000.000001000.000001000.00000
     Eigenvalues --- 1000.000001000.000001000.000001000.000001000.00000
 RFO step:  Lambda=-5.83081791D-02 EMin= 2.30000000D-03
 Linear search not attempted -- first point.
 Maximum step size (   0.300) exceeded in Quadratic search.
    -- Step size scaled by   0.810
 Iteration  1 RMS(Cart)=  0.05568727 RMS(Int)=  0.00341636
 Iteration  2 RMS(Cart)=  0.00460709 RMS(Int)=  0.00158323
 Iteration  3 RMS(Cart)=  0.00002104 RMS(Int)=  0.00158320
 Iteration  4 RMS(Cart)=  0.00000001 RMS(Int)=  0.00158320
 Iteration  1 RMS(Cart)=  0.00000000 RMS(Int)=  0.00000000
 Variable       Old X    -DE/DX   Delta X   Delta X   Delta X     New X
                                 (Linear)    (Quad)   (Total)
    R1        2.63174   0.00904   0.00000   0.01290   0.01287   2.64461
    R2        2.63272  -0.01644   0.00000  -0.02582  -0.02577   2.60694
    R3        2.05464  -0.00489   0.00000  -0.00967  -0.00967   2.04497
    R4        2.63294  -0.00823   0.00000  -0.01316  -0.01323   2.61971
    R5        2.05456  -0.00411   0.00000  -0.00812  -0.00812   2.04644
    R6        2.63815   0.01114   0.00000   0.01781   0.01787   2.65602
    R7        2.05510  -0.00438   0.00000  -0.00866  -0.00866   2.04644
    R8        2.63778  -0.00138   0.00000  -0.00164  -0.00168   2.63609
    R9        2.05499  -0.00457   0.00000  -0.00904  -0.00904   2.04595
   R10        2.64330   0.01445   0.00000   0.02324   0.02310   2.66640
   R11        2.81268  -0.02933   0.00000  -0.05761  -0.05858   2.75410
   R12        2.87078  -0.06043   0.00000  -0.13817  -0.13738   2.73340
   R13        2.91571  -0.03053   0.00000  -0.07572  -0.07467   2.84103
   R14        2.06571  -0.00098   0.00000  -0.00196  -0.00196   2.06375
   R15        2.51084   0.01193   0.00000   0.01670   0.01585   2.52669
   R16        2.05511  -0.00402   0.00000  -0.00794  -0.00794   2.04716
   R17        2.86991  -0.01745   0.00000  -0.03779  -0.03776   2.83215
   R18        2.05548  -0.00293   0.00000  -0.00580  -0.00580   2.04969
   R19        2.06531   0.00420   0.00000   0.00843   0.00843   2.07374
   R20        2.91335   0.01139   0.00000   0.02696   0.02696   2.94030
   R21        2.06566  -0.00156   0.00000  -0.00314  -0.00314   2.06252
   R22        2.06854   0.08008   0.00000   0.16162   0.16162   2.23016
   R23        2.06601   0.00011   0.00000   0.00023   0.00023   2.06623
   R24        2.08342   0.11890   0.00000   0.00000   0.00000   2.08342
   R25        2.77834  -0.01565   0.00000  -0.03049  -0.03049   2.74785
   R26        1.84242  -0.01343   0.00000  -0.01868  -0.01868   1.82374
    A1        2.09356   0.00111   0.00000   0.00022   0.00027   2.09383
    A2        2.09476   0.00016   0.00000   0.00255   0.00252   2.09729
    A3        2.09480  -0.00127   0.00000  -0.00274  -0.00277   2.09203
    A4        2.09395   0.00459   0.00000   0.01038   0.01031   2.10426
    A5        2.09479  -0.00199   0.00000  -0.00405  -0.00402   2.09077
    A6        2.09444  -0.00260   0.00000  -0.00633  -0.00630   2.08815
    A7        2.09855  -0.00093   0.00000  -0.00280  -0.00268   2.09587
    A8        2.08716   0.00205   0.00000   0.00730   0.00720   2.09436
    A9        2.09741  -0.00110   0.00000  -0.00436  -0.00445   2.09295
   A10        2.09994  -0.00057   0.00000  -0.00177  -0.00187   2.09807
   A11        2.08667   0.00209   0.00000   0.00758   0.00762   2.09428
   A12        2.09652  -0.00151   0.00000  -0.00574  -0.00570   2.09082
   A13        2.08852  -0.00274   0.00000  -0.00671  -0.00638   2.08214
   A14        2.08735   0.00967   0.00000   0.02209   0.02243   2.10978
   A15        2.10730  -0.00693   0.00000  -0.01539  -0.01607   2.09124
   A16        2.09165  -0.00142   0.00000   0.00086   0.00041   2.09206
   A17        2.09511   0.00201   0.00000   0.00541   0.00469   2.09980
   A18        2.09469  -0.00049   0.00000  -0.00558  -0.00450   2.09019
   A19        1.99524   0.02085   0.00000   0.07949   0.07501   2.07025
   A20        1.94620  -0.00080   0.00000   0.05284   0.04125   1.98745
   A21        1.93171   0.00276   0.00000   0.06535   0.05492   1.98663
   A22        2.08267   0.00193   0.00000   0.01490   0.01307   2.09574
   A23        2.09672  -0.00501   0.00000  -0.02228  -0.02152   2.07521
   A24        2.10335   0.00319   0.00000   0.00809   0.00886   2.11221
   A25        2.17485  -0.00569   0.00000  -0.01010  -0.01095   2.16390
   A26        2.08025   0.00501   0.00000   0.01326   0.01355   2.09380
   A27        2.02677   0.00080   0.00000  -0.00213  -0.00178   2.02499
   A28        1.95814  -0.00279   0.00000  -0.00500  -0.00434   1.95379
   A29        1.89138  -0.00567   0.00000  -0.03031  -0.02964   1.86174
   A30        1.91001   0.00968   0.00000   0.03404   0.03284   1.94285
   A31        1.88574   0.00408   0.00000   0.01379   0.01339   1.89914
   A32        1.93247  -0.00230   0.00000   0.00283   0.00254   1.93501
   A33        1.88404  -0.00327   0.00000  -0.01722  -0.01683   1.86721
   A34        1.92648   0.00027   0.00000  -0.00071  -0.00077   1.92572
   A35        1.93480  -0.00554   0.00000  -0.02273  -0.02276   1.91204
   A36        1.92814   0.00115   0.00000   0.00509   0.00512   1.93325
   A37        1.88955   0.00167   0.00000   0.00384   0.00373   1.89327
   A38        1.88959   0.00024   0.00000   0.00540   0.00537   1.89495
   A39        1.89407   0.00239   0.00000   0.00990   0.00990   1.90398
   A40        2.85351   0.02193   0.00000   0.05758   0.05758   2.91109
   A41        2.73300  -0.02091   0.00000  -0.07756  -0.07756   2.65544
   A42        1.73356   0.00401   0.00000   0.01488   0.01488   1.74844
    D1        0.00828  -0.00047   0.00000  -0.00277  -0.00270   0.00558
    D2       -3.13308   0.00006   0.00000   0.00090   0.00089  -3.13219
    D3        3.13793  -0.00000   0.00000   0.00037   0.00040   3.13833
    D4       -0.00342   0.00053   0.00000   0.00404   0.00399   0.00056
    D5       -0.01180  -0.00040   0.00000  -0.00448  -0.00450  -0.01630
    D6        3.11741   0.00116   0.00000   0.00807   0.00797   3.12537
    D7       -3.14145  -0.00087   0.00000  -0.00766  -0.00763   3.13411
    D8       -0.01225   0.00068   0.00000   0.00490   0.00484  -0.00741
    D9        0.00781   0.00006   0.00000  -0.00004  -0.00012   0.00769
   D10        3.13811   0.00107   0.00000   0.00700   0.00682  -3.13825
   D11       -3.13402  -0.00047   0.00000  -0.00372  -0.00370  -3.13772
   D12       -0.00372   0.00054   0.00000   0.00332   0.00324  -0.00048
   D13       -0.00074   0.00181   0.00000   0.01474   0.01464   0.01390
   D14        3.07755   0.00352   0.00000   0.02699   0.02659   3.10414
   D15       -3.12987   0.00023   0.00000   0.00203   0.00210  -3.12777
   D16       -0.05158   0.00193   0.00000   0.01428   0.01405  -0.03753
   D17       -0.02028   0.00141   0.00000   0.01040   0.01032  -0.00996
   D18        3.12685   0.00226   0.00000   0.01413   0.01364   3.14049
   D19        3.13266   0.00037   0.00000   0.00324   0.00331   3.13597
   D20       -0.00339   0.00122   0.00000   0.00696   0.00663   0.00324
   D21        0.01671  -0.00229   0.00000  -0.01759  -0.01743  -0.00073
   D22       -3.06160  -0.00409   0.00000  -0.03024  -0.02965  -3.09125
   D23       -3.13050  -0.00310   0.00000  -0.02124  -0.02059   3.13210
   D24        0.07439  -0.00490   0.00000  -0.03389  -0.03281   0.04157
   D25       -2.99353  -0.00490   0.00000  -0.03120  -0.03011  -3.02364
   D26        0.11640  -0.00092   0.00000  -0.00552  -0.00570   0.11070
   D27        0.15367  -0.00405   0.00000  -0.02746  -0.02681   0.12687
   D28       -3.01959  -0.00007   0.00000  -0.00178  -0.00240  -3.02199
   D29        2.74914   0.00682   0.00000   0.07470   0.07676   2.82589
   D30        0.54156  -0.01346   0.00000  -0.12561  -0.12650   0.41506
   D31       -0.45587   0.00850   0.00000   0.08721   0.08887  -0.36700
   D32       -2.66345  -0.01178   0.00000  -0.11310  -0.11439  -2.77783
   D33        0.59132  -0.00875   0.00000  -0.09665  -0.09863   0.49269
   D34       -1.48924  -0.00842   0.00000  -0.09090  -0.09359  -1.58282
   D35        2.74350  -0.00666   0.00000  -0.07197  -0.07416   2.66934
   D36        2.80639   0.00941   0.00000   0.09545   0.09746   2.90385
   D37        0.72584   0.00974   0.00000   0.10119   0.10250   0.82834
   D38       -1.32461   0.01150   0.00000   0.12013   0.12192  -1.20268
   D39        0.03695   0.00159   0.00000   0.00694   0.00583   0.04278
   D40        3.12132   0.00422   0.00000   0.02930   0.02796  -3.13390
   D41       -3.07285  -0.00226   0.00000  -0.01827  -0.01855  -3.09140
   D42        0.01152   0.00037   0.00000   0.00408   0.00359   0.01510
   D43       -0.41421   0.01002   0.00000   0.07265   0.07098  -0.34323
   D44        1.66965   0.00398   0.00000   0.04112   0.04039   1.71004
   D45       -2.55373   0.00116   0.00000   0.03016   0.02950  -2.52423
   D46        2.78303   0.00733   0.00000   0.05045   0.04916   2.83219
   D47       -1.41630   0.00129   0.00000   0.01891   0.01857  -1.39773
   D48        0.64351  -0.00153   0.00000   0.00795   0.00769   0.65119
   D49        3.08190  -0.00183   0.00000  -0.01330  -0.01350   3.06840
   D50        0.98835  -0.00050   0.00000  -0.00290  -0.00315   0.98519
   D51       -1.11197  -0.00062   0.00000  -0.00377  -0.00400  -1.11597
   D52       -1.03399  -0.00019   0.00000   0.00601   0.00637  -1.02762
   D53       -3.12755   0.00114   0.00000   0.01641   0.01672  -3.11083
   D54        1.05532   0.00101   0.00000   0.01554   0.01587   1.07119
   D55        1.02686   0.00148   0.00000   0.01396   0.01387   1.04073
   D56       -1.06670   0.00281   0.00000   0.02436   0.02422  -1.04248
   D57        3.11617   0.00268   0.00000   0.02348   0.02338   3.13955
   D58        3.13839  -0.00002   0.00000   0.00283   0.00286   3.14125
   D59        1.02292   0.00199   0.00000   0.01525   0.01527   1.03819
   D60       -1.02433  -0.00051   0.00000   0.00135   0.00130  -1.02303
   D61       -0.89170   0.00033   0.00000   0.00443   0.00443  -0.88727
   D62        1.58452   0.00137   0.00000   0.01790   0.01790   1.60242
         Item               Value     Threshold  Converged?
 Maximum Force            0.080085     0.002500     NO 
 RMS     Force            0.011457     0.001667     NO 
 Maximum Displacement     0.229397     0.010000     NO 
 RMS     Displacement     0.058020     0.006667     NO 
 Predicted change in Energy=-3.442326D-02
 GradGradGradGradGradGradGradGradGradGradGradGradGradGradGradGradGradGrad

                          Input orientation:                          
 ---------------------------------------------------------------------
 Center     Atomic      Atomic             Coordinates (Angstroms)
 Number     Number       Type             X           Y           Z
 ---------------------------------------------------------------------
      1          6           0       -9.056944    2.607219    3.643943
      2          6           0       -9.383442    1.574621    2.757573
      3          6           0       -7.736869    2.958753    3.836152
      4          1           0       -9.838185    3.136764    4.173378
      5          6           0       -8.389563    0.893337    2.072109
      6          1           0      -10.421183    1.306852    2.602241
      7          6           0       -7.048734    1.225365    2.266653
      8          1           0       -8.652816    0.098059    1.386247
      9          6           0       -6.717903    2.268137    3.157771
     10          1           0       -7.484656    3.767703    4.510487
     11          6           0       -5.335737    2.662558    3.319891
     12          6           0       -5.992013    0.517844    1.554764
     13          6           0       -4.709835    0.754249    1.851219
     14          1           0       -6.265272   -0.201743    0.792470
     15          6           0       -4.258625    1.687405    2.933694
     16          1           0       -3.924673    0.231939    1.315335
     17          1           0       -5.134660    3.195852    4.251460
     18          1           0       -4.027453    1.101539    3.832331
     19          6           0       -2.950855    2.422980    2.521837
     20          1           0       -2.158316    1.701226    2.316423
     21          1           0       -2.598385    3.124921    3.402632
     22          1           0       -3.112095    3.027727    1.625281
     23          8           0       -2.079823    3.836425    4.066226
     24          8           0       -0.890961    4.334116    4.739516
     25          1           0       -0.579171    4.971950    4.085807
 ---------------------------------------------------------------------
                    Distance matrix (angstroms):
                    1          2          3          4          5
     1  C    0.000000
     2  C    1.399469   0.000000
     3  C    1.379535   2.406316   0.000000
     4  H    1.082154   2.156754   2.135635   0.000000
     5  C    2.419391   1.386291   2.793529   3.398058   0.000000
     6  H    2.153427   1.082929   3.384798   2.481317   2.139980
     7  C    2.799885   2.411191   2.437518   3.882020   1.394960
     8  H    3.399470   2.143498   3.876153   4.290329   1.082671
     9  C    2.412976   2.783203   1.405505   3.394427   2.421401
    10  H    2.137688   3.389351   1.082930   2.459842   3.876406
    11  C    3.735700   4.228915   2.473802   4.607098   3.743389
    12  C    4.257224   3.750375   3.769257   5.339374   2.481308
    13  C    5.054177   4.830847   4.238247   6.113000   3.688975
    14  H    4.880020   4.091464   4.627995   5.944903   2.710957
    15  C    4.937041   5.129083   3.811685   5.896520   4.293894
    16  H    6.115928   5.803534   5.321924   7.181646   4.576615
    17  H    4.012465   4.786672   2.645787   4.704544   4.543736
    18  H    5.253413   5.483205   4.148377   6.166285   4.708475
    19  C    6.211070   6.492569   4.992035   7.118454   5.667593
    20  H    7.083374   7.239687   5.917026   8.030531   6.288149
    21  H    6.483766   6.989744   5.159416   7.280720   6.347283
    22  H    6.292301   6.536313   5.126524   7.193398   5.710250
    23  O    7.097146   7.757008   5.729347   7.790583   7.242313
    24  O    8.418178   9.146865   7.040891   9.044721   8.670816
    25  H    8.812481   9.530017   7.439619   9.439540   9.038379
                    6          7          8          9         10
     6  H    0.000000
     7  C    3.390085   0.000000
     8  H    2.463117   2.149189   0.000000
     9  C    3.866131   1.410997   3.404618   0.000000
    10  H    4.280232   3.418815   4.959008   2.160197   0.000000
    11  C    5.311754   2.471678   4.617212   1.446455   2.693829
    12  C    4.619231   1.457406   2.698979   2.481949   4.639597
    13  C    5.786960   2.421772   4.024162   2.833949   4.883875
    14  H    4.777314   2.196284   2.478470   3.449613   5.573782
    15  C    6.183188   2.905707   4.922350   2.536830   4.149842
    16  H    6.709413   3.413453   4.730570   3.916989   5.948454
    17  H    5.851117   3.389093   5.493922   2.136227   2.432404
    18  H    6.514221   3.405117   5.327690   3.009070   4.418210
    19  C    7.553676   4.276916   6.261563   3.823485   5.130142
    20  H    8.277209   4.913766   6.753806   4.671090   6.119978
    21  H    8.071070   4.970348   7.062849   4.214791   5.051352
    22  H    7.572228   4.376870   6.272135   3.990909   5.290677
    23  O    8.838568   5.894588   8.022587   4.979619   5.423496
    24  O   10.225332   7.327861   9.457007   6.381492   6.621940
    25  H   10.606560   7.694248   9.809494   6.771697   7.022555
                   11         12         13         14         15
    11  C    0.000000
    12  C    2.854150   0.000000
    13  C    2.488050   1.337069   0.000000
    14  H    3.931426   1.083313   2.110510   0.000000
    15  C    1.503410   2.504787   1.498707   3.490036   0.000000
    16  H    3.452138   2.100706   1.084647   2.437186   2.202042
    17  H    1.092088   3.896018   3.450081   4.978609   2.186174
    18  H    2.100234   3.063905   2.123926   3.993387   1.097374
    19  C    2.526252   3.716640   2.515632   4.567848   1.555942
    20  H    3.468012   4.083840   2.761056   4.776066   2.189180
    21  H    2.777359   4.661349   3.533439   5.596936   2.245606
    22  H    2.819510   3.820787   2.787925   4.589725   2.196118
    23  O    3.540615   5.711888   4.617687   6.673999   3.263142
    24  O    4.956357   7.122311   5.978420   8.064515   4.648358
    25  H    5.342737   7.452791   6.312271   8.363307   5.064975
                   16         17         18         19         20
    16  H    0.000000
    17  H    4.343925   0.000000
    18  H    2.664965   2.405769   0.000000
    19  C    2.684143   2.891009   2.150038   0.000000
    20  H    2.506192   3.851869   2.480176   1.091439   0.000000
    21  H    3.805941   2.675487   2.514149   1.180151   1.844022
    22  H    2.927931   3.319014   3.069064   1.093403   1.773972
    23  O    4.895222   3.126768   3.365646   2.267524   2.761711
    24  O    6.144614   4.420727   4.594575   3.579624   3.796008
    25  H    6.429277   4.892284   5.189892   3.816823   4.040056
                   21         22         23         24         25
    21  H    0.000000
    22  H    1.852653   0.000000
    23  O    1.102498   2.770883   0.000000
    24  O    2.482883   4.042097   1.454100   0.000000
    25  H    2.820544   4.031116   1.881955   0.965080   0.000000
 Stoichiometry    C11H12O2
 Framework group  C1[X(C11H12O2)]
 Deg. of freedom    69
 Full point group                 C1      NOp   1
 Largest Abelian subgroup         C1      NOp   1
 Largest concise Abelian subgroup C1      NOp   1
                         Standard orientation:                         
 ---------------------------------------------------------------------
 Center     Atomic      Atomic             Coordinates (Angstroms)
 Number     Number       Type             X           Y           Z
 ---------------------------------------------------------------------
      1          6           0        3.141875   -1.812334   -0.013891
      2          6           0        3.889633   -0.629416   -0.022550
      3          6           0        1.763484   -1.756279   -0.017436
      4          1           0        3.642159   -2.771902   -0.012686
      5          6           0        3.257322    0.604259   -0.028053
      6          1           0        4.971509   -0.676786   -0.028578
      7          6           0        1.864428    0.679148   -0.015732
      8          1           0        3.844902    1.513560   -0.037870
      9          6           0        1.108914   -0.512523   -0.009913
     10          1           0        1.184409   -2.671340   -0.025952
     11          6           0       -0.335190   -0.447301   -0.060338
     12          6           0        1.184560    1.968253   -0.019926
     13          6           0       -0.143028    2.026150    0.128100
     14          1           0        1.773053    2.870148   -0.137519
     15          6           0       -1.013402    0.827796    0.357272
     16          1           0       -0.647977    2.986033    0.117542
     17          1           0       -0.831315   -1.350088    0.302278
     18          1           0       -1.217077    0.738666    1.431889
     19          6           0       -2.387314    0.996635   -0.353233
     20          1           0       -2.898325    1.887569    0.016015
     21          1           0       -3.065499    0.056956   -0.130019
     22          1           0       -2.255378    1.093722   -1.434297
     23          8           0       -3.866956   -0.697405   -0.065915
     24          8           0       -5.243064   -1.092754    0.187923
     25          1           0       -5.607991   -1.021600   -0.702664
 ---------------------------------------------------------------------
 Rotational constants (GHZ):           1.7353016           0.3551357           0.2978255
 Standard basis: 6-311+G(2df,2p) (5D, 7F)
 There are   615 symmetry adapted cartesian basis functions of A   symmetry.
 There are   550 symmetry adapted basis functions of A   symmetry.
   550 basis functions,   808 primitive gaussians,   615 cartesian basis functions
    47 alpha electrons       47 beta electrons
       nuclear repulsion energy       717.3061512920 Hartrees.
 NAtoms=   25 NActive=   25 NUniq=   25 SFac= 1.00D+00 NAtFMM=   60 NAOKFM=F Big=F
 Integral buffers will be    131072 words long.
 Raffenetti 2 integral format.
 Two-electron integral symmetry is turned on.
 One-electron integrals computed using PRISM.
 NBasis=   550 RedAO= T EigKep=  1.80D-06  NBF=   550
 NBsUse=   548 1.00D-06 EigRej=  8.96D-07 NBFU=   548
 Initial guess from the checkpoint file:  "/scratch/dinius.ab/QMscratch/Gau-45427.chk"
 B after Tr=     0.000000    0.000000    0.000000
         Rot=    0.999993    0.000864    0.000209    0.003750 Ang=   0.44 deg.
 ExpMin= 4.38D-02 ExpMax= 8.59D+03 ExpMxC= 1.30D+03 IAcc=2 IRadAn=         4 AccDes= 0.00D+00
 Harris functional with IExCor= 1009 and IRadAn=       4 diagonalized for initial guess.
 HarFok:  IExCor= 1009 AccDes= 0.00D+00 IRadAn=         4 IDoV= 1 UseB2=F ITyADJ=14
 ICtDFT=  3500011 ScaDFX=  1.000000  1.000000  1.000000  1.000000
 FoFCou: FMM=F IPFlag=           0 FMFlag=      100000 FMFlg1=           0
         NFxFlg=           0 DoJE=T BraDBF=F KetDBF=T FulRan=T
         wScrn=  0.000000 ICntrl=       500 IOpCl=  0 I1Cent=   200000004 NGrid=           0
         NMat0=    1 NMatS0=      1 NMatT0=    0 NMatD0=    1 NMtDS0=    0 NMtDT0=    0
 Petite list used in FoFCou.
 Requested convergence on RMS density matrix=1.00D-08 within 128 cycles.
 Requested convergence on MAX density matrix=1.00D-06.
 Requested convergence on             energy=1.00D-06.
 No special actions if energy rises.
 SCF Done:  E(RM062X) =  -576.466158262     A.U. after   17 cycles
            NFock= 17  Conv=0.54D-08     -V/T= 2.0036
 Calling FoFJK, ICntrl=      2127 FMM=F ISym2X=0 I1Cent= 0 IOpClX= 0 NMat=1 NMatS=1 NMatT=0.
 ***** Axes restored to original set *****
 -------------------------------------------------------------------
 Center     Atomic                   Forces (Hartrees/Bohr)
 Number     Number              X              Y              Z
 -------------------------------------------------------------------
      1        6           0.009031697    0.008244233    0.006843513
      2        6           0.003751024   -0.007660428   -0.007287691
      3        6          -0.019573319    0.003509905    0.003711004
      4        1           0.000827388   -0.001041069   -0.000666409
      5        6          -0.010192694    0.001979961    0.003849817
      6        1           0.000994736    0.000224230    0.000145602
      7        6           0.008364010   -0.018504507   -0.018975451
      8        1           0.001299889    0.000870216    0.000736301
      9        6           0.043513181    0.026196856   -0.005263359
     10        1           0.001118365   -0.001201671   -0.001194300
     11        6          -0.028493182   -0.064286849    0.033009683
     12        6          -0.015575546    0.012204170    0.004750956
     13        6           0.013854831   -0.000101536    0.008288275
     14        1          -0.001097256    0.001105926    0.000657874
     15        6          -0.020309751    0.018133281   -0.021356174
     16        1          -0.000899023   -0.001127438    0.002558930
     17        1           0.004520747    0.016989159   -0.012791119
[...]
   R17        2.97549  -0.00368   0.00876   0.00984   0.01861   2.99410
   R18        2.04210  -0.00046   0.00009  -0.00040  -0.00031   2.04179
   R19        2.03769   0.00083  -0.00062   0.00192   0.00130   2.03898
   R20        2.87374  -0.00238   0.00205  -0.00598  -0.00393   2.86981
   R21        2.04292  -0.00043  -0.00010  -0.00024  -0.00035   2.04257
   R22        3.82006   0.00251   0.04143   0.06937   0.11080   3.93086
   R23        2.04713  -0.00077  -0.00049  -0.00085  -0.00135   2.04578
   R24        2.08342  -0.08156   0.00000   0.00000   0.00000   2.08342
   R25        2.68930  -0.00121  -0.00136  -0.00094  -0.00229   2.68700
   R26        1.82026  -0.00015   0.00014   0.00021   0.00034   1.82061
    A1        2.10502   0.00032  -0.00013  -0.00016  -0.00029   2.10473
    A2        2.07849  -0.00013   0.00020   0.00015   0.00035   2.07884
    A3        2.09966  -0.00019  -0.00008   0.00000  -0.00008   2.09958
    A4        2.11005  -0.00037  -0.00001  -0.00084  -0.00085   2.10919
    A5        2.07736   0.00003   0.00054   0.00046   0.00100   2.07836
    A6        2.09576   0.00034  -0.00053   0.00038  -0.00016   2.09560
    A7        2.11849   0.00021  -0.00001   0.00058   0.00057   2.11906
    A8        2.11060  -0.00015  -0.00018  -0.00063  -0.00082   2.10978
    A9        2.05404  -0.00006   0.00021   0.00004   0.00025   2.05429
   A10        2.11888   0.00009   0.00004   0.00031   0.00035   2.11923
   A11        2.10772   0.00020  -0.00059   0.00022  -0.00038   2.10734
   A12        2.05652  -0.00030   0.00055  -0.00052   0.00002   2.05655
   A13        2.05424   0.00013  -0.00004   0.00018   0.00014   2.05437
   A14        2.11989   0.00042  -0.00005  -0.00088  -0.00095   2.11894
   A15        2.10364  -0.00056  -0.00026  -0.00011  -0.00043   2.10321
   A16        2.05944  -0.00039   0.00012  -0.00012  -0.00001   2.05942
   A17        2.11940   0.00006   0.00012  -0.00154  -0.00145   2.11795
   A18        2.09821   0.00034  -0.00059   0.00107   0.00044   2.09865
   A19        2.14173  -0.00016  -0.00023   0.00146   0.00114   2.14287
   A20        2.08722   0.00082  -0.00116   0.00084  -0.00044   2.08678
   A21        2.05374  -0.00065   0.00127  -0.00140  -0.00026   2.05348
   A22        2.14621  -0.00047   0.00157  -0.00063   0.00090   2.14710
   A23        2.08062   0.00045  -0.00128   0.00014  -0.00114   2.07948
   A24        2.05592   0.00002  -0.00036   0.00034  -0.00002   2.05589
   A25        2.01275   0.00074  -0.00292   0.00095  -0.00201   2.01074
   A26        2.04234  -0.00045   0.00079   0.00426   0.00501   2.04734
   A27        2.03456   0.00009  -0.00210  -0.00054  -0.00266   2.03190
   A28        2.03033   0.00016  -0.00010  -0.00369  -0.00385   2.02648
   A29        2.06251  -0.00162   0.00494  -0.00343   0.00132   2.06383
   A30        2.07574   0.00163  -0.00133   0.01214   0.01076   2.08649
   A31        2.04209   0.00120  -0.00446  -0.00570  -0.01020   2.03190
   A32        1.00884  -0.00052  -0.00456   0.00548   0.00096   1.00979
   A33        2.00135   0.00005   0.00013  -0.00010  -0.00010   2.00125
   A34        2.01314   0.00119  -0.00429   0.00923   0.00480   2.01794
   A35        1.35121  -0.00339  -0.00552   0.00040  -0.00514   1.34607
   A36        2.05458  -0.00003  -0.00196   0.00011  -0.00196   2.05262
   A37        1.43171   0.00234  -0.00548   0.00713   0.00162   1.43333
   A38        2.03674  -0.00071  -0.00145   0.00121  -0.00039   2.03636
   A39        1.36642   0.00181  -0.00205   0.00941   0.00734   1.37375
   A40        3.12709  -0.00093   0.00052   0.00118   0.00170   3.12879
   A41        1.76792  -0.00203   0.00270   0.01037   0.01307   1.78099
   A42        1.77504  -0.00051  -0.00188  -0.00004  -0.00192   1.77312
    D1       -0.00276   0.00004  -0.00026  -0.00018  -0.00045  -0.00320
    D2        3.13217  -0.00000  -0.00063  -0.00165  -0.00228   3.12989
    D3       -3.13789   0.00007   0.00051   0.00171   0.00223  -3.13566
    D4       -0.00296   0.00003   0.00014   0.00025   0.00039  -0.00257
    D5        0.01553  -0.00003   0.00033   0.00157   0.00190   0.01743
    D6       -3.13760  -0.00000   0.00120   0.00076   0.00196  -3.13564
    D7       -3.13260  -0.00006  -0.00045  -0.00035  -0.00081  -3.13341
    D8       -0.00254  -0.00004   0.00041  -0.00116  -0.00075  -0.00329
    D9       -0.01696  -0.00003  -0.00100  -0.00192  -0.00291  -0.01987
   D10        3.13745  -0.00010   0.00005  -0.00253  -0.00247   3.13497
   D11        3.13137   0.00001  -0.00062  -0.00044  -0.00106   3.13031
   D12        0.00259  -0.00005   0.00043  -0.00105  -0.00062   0.00197
   D13       -0.00860   0.00002   0.00080  -0.00084  -0.00004  -0.00863
   D14       -3.03149  -0.00010   0.00447   0.00486   0.00934  -3.02215
   D15       -3.13901  -0.00000  -0.00003  -0.00005  -0.00009  -3.13910
   D16        0.12128  -0.00012   0.00363   0.00565   0.00929   0.13057
   D17        0.02296   0.00002   0.00209   0.00255   0.00464   0.02761
   D18        3.05338  -0.00015  -0.00169  -0.00568  -0.00736   3.04602
   D19       -3.13108   0.00009   0.00106   0.00315   0.00421  -3.12687
   D20       -0.10066  -0.00008  -0.00272  -0.00508  -0.00779  -0.10845
   D21       -0.01019  -0.00001  -0.00195  -0.00116  -0.00312  -0.01331
   D22        3.01420   0.00009  -0.00552  -0.00698  -0.01252   3.00167
   D23       -3.04170   0.00009   0.00178   0.00703   0.00881  -3.03289
   D24       -0.01730   0.00018  -0.00179   0.00122  -0.00060  -0.01790
   D25        3.05500   0.00034  -0.00323   0.00389   0.00063   3.05564
   D26       -0.11931   0.00005  -0.00644  -0.00146  -0.00791  -0.12721
   D27       -0.20088   0.00022  -0.00710  -0.00455  -0.01167  -0.21255
   D28        2.90800  -0.00007  -0.01031  -0.00990  -0.02021   2.88779
   D29       -3.05995   0.00002   0.00650  -0.00492   0.00158  -3.05837
   D30        0.11628  -0.00049   0.01573  -0.03668  -0.02097   0.09532
   D31        0.20295  -0.00005   0.01020   0.00100   0.01120   0.21415
   D32       -2.90401  -0.00056   0.01943  -0.03077  -0.01134  -2.91535
   D33       -0.16735  -0.00039  -0.00967   0.00034  -0.00929  -0.17664
   D34       -2.73494  -0.00034  -0.00882   0.02463   0.01588  -2.71906
   D35        0.98564  -0.00046  -0.01550   0.00898  -0.00655   0.97909
   D36        2.94023   0.00014  -0.01873   0.03158   0.01285   2.95308
   D37        0.37264   0.00019  -0.01788   0.05586   0.03801   0.41066
   D38       -2.18997   0.00008  -0.02457   0.04021   0.01559  -2.17438
   D39        0.21927  -0.00053   0.00670   0.00533   0.01203   0.23130
   D40        2.71197   0.00006  -0.00044   0.01192   0.01148   2.72345
   D41       -2.89004  -0.00025   0.00987   0.01061   0.02048  -2.86956
   D42       -0.39734   0.00035   0.00274   0.01721   0.01993  -0.37741
   D43       -0.03811   0.00059   0.00145  -0.00333  -0.00189  -0.04000
   D44        2.53632  -0.00040   0.00376  -0.02658  -0.02276   2.51356
   D45       -1.94122  -0.00116   0.00443  -0.02165  -0.01718  -1.95841
   D46       -2.53378   0.00021   0.00750  -0.01173  -0.00427  -2.53805
   D47        0.04066  -0.00078   0.00981  -0.03497  -0.02515   0.01551
   D48        1.84629  -0.00154   0.01048  -0.03005  -0.01957   1.82672
   D49        2.59208  -0.00010  -0.00414   0.01417   0.01006   2.60214
   D50        1.28730  -0.00051   0.00381   0.00898   0.01278   1.30008
   D51        0.07640  -0.00053   0.00901  -0.00263   0.00635   0.08275
   D52       -1.86677  -0.00093  -0.00549   0.00563   0.00018  -1.86659
   D53        3.11163  -0.00135   0.00246   0.00044   0.00290   3.11453
   D54        1.90074  -0.00137   0.00766  -0.01117  -0.00353   1.89720
   D55        0.01002   0.00035  -0.01222   0.00030  -0.01188  -0.00186
   D56       -1.29476  -0.00007  -0.00427  -0.00489  -0.00917  -1.30393
   D57       -2.50566  -0.00009   0.00093  -0.01650  -0.01560  -2.52126
   D58       -0.87940  -0.00031  -0.00787  -0.04607  -0.05391  -0.93331
   D59       -2.94415  -0.00174  -0.00649  -0.05341  -0.05992  -3.00407
   D60        1.25350   0.00026  -0.00717  -0.04982  -0.05699   1.19651
   D61        1.36121  -0.00181  -0.01301  -0.11630  -0.12931   1.23191
   D62        1.99741  -0.00038   0.00905  -0.03327  -0.02422   1.97318
         Item               Value     Threshold  Converged?
 Maximum Force            0.003676     0.002500     NO 
 RMS     Force            0.000855     0.001667     YES
 Maximum Displacement     0.317038     0.010000     NO 
 RMS     Displacement     0.060296     0.006667     NO 
 Predicted change in Energy=-3.412381D-04
 GradGradGradGradGradGradGradGradGradGradGradGradGradGradGradGradGradGrad

                          Input orientation:                          
 ---------------------------------------------------------------------
 Center     Atomic      Atomic             Coordinates (Angstroms)
 Number     Number       Type             X           Y           Z
 ---------------------------------------------------------------------
      1          6           0       -8.704768    2.781901    3.674908
      2          6           0       -9.052070    1.895496    2.587736
      3          6           0       -7.424736    2.918937    4.064027
      4          1           0       -9.489308    3.328588    4.178673
      5          6           0       -8.104761    1.193220    1.941053
      6          1           0      -10.090387    1.795610    2.302152
      7          6           0       -6.704497    1.314867    2.289946
      8          1           0       -8.367659    0.524792    1.130541
      9          6           0       -6.353515    2.205963    3.399858
     10          1           0       -7.159890    3.577582    4.881592
     11          6           0       -5.081998    2.236493    3.876982
     12          6           0       -5.761379    0.527541    1.714119
     13          6           0       -4.342444    0.687936    1.958606
     14          1           0       -6.073972   -0.284168    1.069694
     15          6           0       -3.970087    1.619827    3.184692
     16          1           0       -3.711834   -0.175317    1.801970
     17          1           0       -4.876285    2.730065    4.819897
     18          1           0       -3.105862    1.330686    3.762372
     19          6           0       -3.669741    2.014583    1.749345
     20          1           0       -2.629586    1.966732    1.459348
     21          1           0       -2.995938    3.657569    2.832622
     22          1           0       -4.259377    2.811517    1.314368
     23          8           0       -2.651426    4.529311    3.413036
     24          8           0       -2.558571    3.993168    4.726706
     25          1           0       -1.608079    4.022901    4.881198
 ---------------------------------------------------------------------
                    Distance matrix (angstroms):
                    1          2          3          4          5
     1  C    0.000000
     2  C    1.445087   0.000000
     3  C    1.344870   2.423857   0.000000
     4  H    1.080810   2.185409   2.107941   0.000000
     5  C    2.426967   1.344911   2.819140   3.388763   0.000000
     6  H    2.185674   1.081498   3.386999   2.496527   2.106177
     7  C    2.841019   2.436577   2.497829   3.921420   1.448193
     8  H    3.417892   2.114394   3.902099   4.290743   1.082978
     9  C    2.436339   2.835159   1.448091   3.420532   2.494117
    10  H    2.115618   3.416363   1.082760   2.445871   3.901888
    11  C    3.669164   4.188067   2.447271   4.550612   3.738093
    12  C    4.194088   3.669217   3.742673   5.274216   2.446644
    13  C    5.134223   4.902507   4.348642   6.196124   3.796135
    14  H    4.807183   3.990545   4.588080   5.863640   2.658203
    15  C    4.899788   5.124343   3.794142   5.862564   4.338681
    16  H    6.097739   5.781333   5.336380   7.162770   4.603265
    17  H    3.996369   4.807934   2.664885   4.695677   4.590500
    18  H    5.784584   6.087377   4.611529   6.701738   5.322132
    19  C    5.445003   5.448536   4.502843   6.441708   4.514508
    20  H    6.517748   6.521244   5.539360   7.503677   5.550486
    21  H    5.836692   6.312021   4.655769   6.639574   5.741775
    22  H    5.033342   5.042863   4.194242   5.985298   4.218838
    23  O    6.305946   6.970390   5.079525   6.984595   6.560114
    24  O    6.352101   7.151290   5.027194   6.984062   6.808803
    25  H    7.304670   8.074578   5.976621   7.942882   7.671924
                    6          7          8          9         10
     6  H    0.000000
     7  C    3.419871   0.000000
     8  H    2.440378   2.175901   0.000000
     9  C    3.916320   1.465996   3.468849   0.000000
    10  H    4.291474   3.470431   4.984839   2.174193   0.000000
    11  C    5.268627   2.449609   4.611771   1.358431   2.669344
    12  C    4.549077   1.356809   2.670818   2.451416   4.614268
    13  C    5.863771   2.466196   4.112744   2.902760   4.983162
    14  H    4.687859   2.107959   2.432924   3.421777   5.533796
    15  C    6.186101   2.893193   4.975669   2.463854   4.109393
    16  H    6.694825   3.378580   4.755805   3.899002   5.954613
    17  H    5.865075   3.427214   5.537533   2.115042   2.436584
    18  H    7.150663   3.888247   5.938224   3.383012   4.768263
    19  C    6.448119   3.160948   4.967175   3.156495   4.943185
    20  H    7.510203   4.209479   5.925604   4.206002   5.901715
    21  H    7.353877   4.419973   6.447229   3.701654   4.641462
    22  H    6.000706   3.028255   4.705411   3.016849   4.661000
    23  O    8.002832   5.293521   7.343111   4.370764   4.836185
    24  O    8.211942   5.504525   7.662085   4.399572   4.622644
    25  H    9.141217   6.326256   8.485053   5.292900   5.569642
                   11         12         13         14         15
    11  C    0.000000
    12  C    2.839023   0.000000
    13  C    2.573934   1.448749   0.000000
    14  H    3.901104   1.082529   2.175624   0.000000
    15  C    1.447718   2.562109   1.584411   3.539032   0.000000
    16  H    3.464080   2.168493   1.080467   2.475435   2.280604
    17  H    1.083983   3.909010   3.555596   4.958233   2.174331
    18  H    2.176863   3.448500   2.279438   4.320642   1.078982
    19  C    2.563309   2.566609   1.502102   3.395071   1.518638
    20  H    3.454280   3.456053   2.195099   4.133059   2.212261
    21  H    2.731628   4.323863   3.375753   5.302783   2.285894
    22  H    2.752154   2.762672   2.220707   3.596650   2.236499
    23  O    3.373416   5.345305   4.441967   6.354106   3.202515
    24  O    3.189925   5.598592   4.665742   6.635314   3.162741
    25  H    4.033338   6.284730   5.209635   7.281663   3.772530
                   16         17         18         19         20
    16  H    0.000000
    17  H    4.347996   0.000000
    18  H    2.545275   2.492190   0.000000
    19  C    2.190936   3.375789   2.199535   0.000000
    20  H    2.424257   4.113833   2.436250   1.080884   0.000000
    21  H    4.033083   2.888811   2.508167   2.080121   2.208852
    22  H    3.075506   3.560329   3.084831   1.082580   1.841439
    23  O    5.084635   3.188501   3.249576   3.182561   3.222451
    24  O    5.221146   2.641195   2.884142   3.743552   3.845403
    25  H    5.615377   3.515160   3.277674   4.253505   4.120725
                   21         22         23         24         25
    21  H    0.000000
    22  H    2.148762   0.000000
    23  O    1.102498   3.152892   0.000000
    24  O    1.972681   3.991628   1.421901   0.000000
    25  H    2.501256   4.606420   1.870969   0.963424   0.000000
 Stoichiometry    C11H12O2
 Framework group  C1[X(C11H12O2)]
 Deg. of freedom    69
 Full point group                 C1      NOp   1
 Largest Abelian subgroup         C1      NOp   1
 Largest concise Abelian subgroup C1      NOp   1
                         Standard orientation:                         
 ---------------------------------------------------------------------
 Center     Atomic      Atomic             Coordinates (Angstroms)
 Number     Number       Type             X           Y           Z
 ---------------------------------------------------------------------
      1          6           0        2.731519   -1.811827   -0.075324
      2          6           0        3.481185   -0.604270   -0.336246
      3          6           0        1.420102   -1.753578    0.217025
      4          1           0        3.240711   -2.764557   -0.109657
      5          6           0        2.884278    0.600251   -0.296033
      6          1           0        4.537051   -0.678657   -0.558176
      7          6           0        1.469736    0.732914   -0.015439
      8          1           0        3.449075    1.504580   -0.485859
      9          6           0        0.711684   -0.491325    0.259768
     10          1           0        0.855108   -2.654953    0.418703
     11          6           0       -0.575529   -0.417450    0.687509
     12          6           0        0.889597    1.950364    0.133510
     13          6           0       -0.537089    2.128581    0.311498
     14          1           0        1.515638    2.833140    0.159018
     15          6           0       -1.345163    0.808133    0.648828
     16          1           0       -0.866077    3.032471    0.803595
     17          1           0       -1.057792   -1.302008    1.087508
     18          1           0       -2.172659    0.913328    1.333217
     19          6           0       -1.514585    1.544813   -0.668313
     20          1           0       -2.439915    2.091699   -0.782281
     21          1           0       -2.785815   -0.087559   -0.883350
     22          1           0       -1.112518    1.078961   -1.558988
     23          8           0       -3.448896   -0.961377   -0.994110
     24          8           0       -3.592635   -1.397205    0.351697
     25          1           0       -4.524965   -1.217428    0.514876
 ---------------------------------------------------------------------
 Rotational constants (GHZ):           1.3625365           0.5103336           0.3991779
 Standard basis: 6-311+G(2df,2p) (5D, 7F)
 There are   615 symmetry adapted cartesian basis functions of A   symmetry.
 There are   550 symmetry adapted basis functions of A   symmetry.
   550 basis functions,   808 primitive gaussians,   615 cartesian basis functions
    47 alpha electrons       47 beta electrons
       nuclear repulsion energy       749.0990351179 Hartrees.
 NAtoms=   25 NActive=   25 NUniq=   25 SFac= 1.00D+00 NAtFMM=   60 NAOKFM=F Big=F
 Integral buffers will be    131072 words long.
 Raffenetti 2 integral format.
 Two-electron integral symmetry is turned on.
 One-electron integrals computed using PRISM.
 NBasis=   550 RedAO= T EigKep=  1.96D-06  NBF=   550
 NBsUse=   548 1.00D-06 EigRej=  8.92D-07 NBFU=   548
 Initial guess from the checkpoint file:  "/scratch/dinius.ab/QMscratch/Gau-45427.chk"
 B after Tr=    -0.000000   -0.000000    0.000000
         Rot=    0.999990   -0.002463   -0.002041    0.003023 Ang=  -0.50 deg.
 ExpMin= 4.38D-02 ExpMax= 8.59D+03 ExpMxC= 1.30D+03 IAcc=2 IRadAn=         4 AccDes= 0.00D+00
 Harris functional with IExCor= 1009 and IRadAn=       4 diagonalized for initial guess.
 HarFok:  IExCor= 1009 AccDes= 0.00D+00 IRadAn=         4 IDoV= 1 UseB2=F ITyADJ=14
 ICtDFT=  3500011 ScaDFX=  1.000000  1.000000  1.000000  1.000000
 FoFCou: FMM=F IPFlag=           0 FMFlag=      100000 FMFlg1=           0
         NFxFlg=           0 DoJE=T BraDBF=F KetDBF=T FulRan=T
         wScrn=  0.000000 ICntrl=       500 IOpCl=  0 I1Cent=   200000004 NGrid=           0
         NMat0=    1 NMatS0=      1 NMatT0=    0 NMatD0=    1 NMtDS0=    0 NMtDT0=    0
 Petite list used in FoFCou.
 Requested convergence on RMS density matrix=1.00D-08 within 128 cycles.
 Requested convergence on MAX density matrix=1.00D-06.
 Requested convergence on             energy=1.00D-06.
 No special actions if energy rises.
