 Entering Gaussian System, Link 0=g16
 Input=rxn935.com
 Output=rxn935.log
 Initial command:
 /shared/centos7/gaussian/g16/l1.exe "/scratch/dinius.ab/QMscratch/Gau-48315.inp" -scrdir="/scratch/dinius.ab/QMscratch/"
 Entering Link 1 = /shared/centos7/gaussian/g16/l1.exe PID=     48316.
  
 Copyright (c) 1988,1990,1992,1993,1995,1998,2003,2009,2016,
            Gaussian, Inc.  All Rights Reserved.
  
 This is part of the Gaussian(R) 16 program.  It is based on
 the Gaussian(R) 09 system (copyright 2009, Gaussian, Inc.),
 the Gaussian(R) 03 system (copyright 2003, Gaussian, Inc.),
 the Gaussian(R) 98 system (copyright 1998, Gaussian, Inc.),
 the Gaussian(R) 94 system (copyright 1995, Gaussian, Inc.),
 the Gaussian 92(TM) system (copyright 1992, Gaussian, Inc.),
 the Gaussian 90(TM) system (copyright 1990, Gaussian, Inc.),
 the Gaussian 88(TM) system (copyright 1988, Gaussian, Inc.),
 the Gaussian 86(TM) system (copyright 1986, Carnegie Mellon
 University), and the Gaussian 82(TM) system (copyright 1983,
 Carnegie Mellon University). Gaussian is a federally registered
 trademark of Gaussian, Inc.
  
 This software contains proprietary and confidential information,
 including trade secrets, belonging to Gaussian, Inc.
  
 This software is provided under written license and may be
 used, copied, transmitted, or stored only in accord with that
 written license.
  
 The following legend is applicable only to US Government
 contracts under FAR:
  
                    RESTRICTED RIGHTS LEGEND
  
 Use, reproduction and disclosure by the US Government is
 subject to restrictions as set forth in subparagraphs (a)
 and (c) of the Commercial Computer Software - Restricted
 Rights clause in FAR 52.227-19.
  
 Gaussian, Inc.
 340 Quinnipiac St., Bldg. 40, Wallingford CT 06492
  
  
 ---------------------------------------------------------------
 Warning -- This program may not be used in any manner that
 competes with the business of Gaussian, Inc. or will provide
 assistance to any competitor of Gaussian, Inc.  The licensee
 of this program is prohibited from giving any competitor of
 Gaussian, Inc. access to this program.  By using this program,
 the user acknowledges that Gaussian, Inc. is engaged in the
 business of creating and licensing software in the field of
 computational chemistry and represents and warrants to the
 licensee that it is not a competitor of Gaussian, Inc. and that
 it will not use this program in any manner prohibited above.
 ---------------------------------------------------------------
  

 Cite this work as:
 Gaussian 16, Revision A.03,
 M. J. Frisch, G. W. Trucks, H. B. Schlegel, G. E. Scuseria, 
 M. A. Robb, J. R. Cheeseman, G. Scalmani, V. Barone, 
 G. A. Petersson, H. Nakatsuji, X. Li, M. Caricato, A. V. Marenich, 
 J. Bloino, B. G. Janesko, R. Gomperts, B. Mennucci, H. P. Hratchian, 
 J. V. Ortiz, A. F. Izmaylov, J. L. Sonnenberg, D. Williams-Young, 
 F. Ding, F. Lipparini, F. Egidi, J. Goings, B. Peng, A. Petrone, 
 T. Henderson, D. Ranasinghe, V. G. Zakrzewski, J. Gao, N. Rega, 
 G. Zheng, W. Liang, M. Hada, M. Ehara, K. Toyota, R. Fukuda, 
 J. Hasegawa, M. Ishida, T. Nakajima, Y. Honda, O. Kitao, H. Nakai, 
 T. Vreven, K. Throssell, J. A. Montgomery, Jr., J. E. Peralta, 
 F. Ogliaro, M. J. Bearpark, J. J. Heyd, E. N. Brothers, K. N. Kudin, 
 V. N. Staroverov, T. A. Keith, R. Kobayashi, J. Normand, 
 K. Raghavachari, A. P. Rendell, J. C. Burant, S. S. Iyengar, 
 J. Tomasi, M. Cossi, J. M. Millam, M. Klene, C. Adamo, R. Cammi, 
 J. W. Ochterski, R. L. Martin, K. Morokuma, O. Farkas, 
 J. B. Foresman, and D. J. Fox, Gaussian, Inc., Wallingford CT, 2016.
 
 ******************************************
 Gaussian 16:  EM64L-G16RevA.03 25-Dec-2016
                 6-Nov-2018 
 ******************************************
 ----------------------------------------------------------------------
 #m062x/6-311+g(2df,2p) Opt=(ModRedun,Loose,maxcycle=1000) Int(Grid=SG1
 ) freq
 ----------------------------------------------------------------------
 1/6=1000,7=-1,18=120,19=15,26=2,38=1/1,3;
 2/9=110,12=2,17=6,18=5,40=1/2;
 3/5=4,6=6,7=214,11=2,25=1,30=1,71=1,74=-55,75=1/1,2,3;
 4//1;
 5/5=2,38=5/2;
 6/7=2,8=2,9=2,10=2,28=1/1;
 7//1,2,3,16;
 1/6=1000,7=-1,18=20,19=15,26=2/3(2);
 2/9=110/2;
 99//99;
 2/9=110/2;
 3/5=4,6=6,7=214,11=2,25=1,30=1,71=1,74=-55,75=1/1,2,3;
 4/5=5,16=3,69=1/1;
 5/5=2,38=5/2;
 7//1,2,3,16;
 1/6=1000,7=-1,18=20,19=15,26=2/3(-5);
 2/9=110/2;
 6/7=2,8=2,9=2,10=2,19=2,28=1/1;
 99/9=1/99;
 -----
 Title
 -----
 Symbolic Z-matrix:
 Charge =  0 Multiplicity = 1
 C                    -5.34245  -1.20762   1.65582 
 C                    -3.97845  -0.96894   1.49407 
 C                    -5.86921  -2.46699   1.37942 
 H                    -5.99689  -0.4091    1.99685 
 C                    -3.13111  -1.98566   1.0398 
 H                    -3.58569   0.01859   1.71959 
 C                    -5.02945  -3.48938   0.94497 
 H                    -6.93324  -2.65254   1.50506 
 C                    -3.66726  -3.24864   0.77561 
 H                    -5.43705  -4.47516   0.73443 
 H                    -3.02201  -4.05406   0.43269 
 C                    -1.64156  -1.74682   0.81309 
 C                    -1.34897  -0.46593  -0.00908 
 C                     0.11741  -0.25252  -0.3785 
 H                    -1.70246   0.40514   0.54638 
 H                    -1.93208  -0.50279  -0.9324 
 O                    -0.94693  -1.71109   2.06239 
 H                    -1.24995  -2.59574   0.2489 
 H                    -1.25544  -0.96432   2.60852 
 O                    -0.16125  -2.45435   3.06192 
 C                     0.6658    1.03109  -0.29902 
 C                     1.98933   1.26046  -0.67044 
 H                     0.05864   1.86554   0.0441 
 C                     2.77905   0.2069   -1.12338 
 H                     2.40419   2.26376  -0.61118 
 C                     0.91499  -1.30265  -0.847 
 C                     2.24117  -1.07459  -1.21007 
 H                     3.81122   0.38567  -1.4147 
 H                     0.51119  -2.30645  -0.94151 
 H                     2.85457  -1.89701  -1.56978 
 H                     0.55834  -2.94241   3.74179 
 O                     1.33485  -3.32319   3.05765 
 O                     2.43569  -3.71697   2.16311 
 H                     2.07739  -3.36091   1.32939 
 
 The following ModRedundant input section has been read:
 

 GradGradGradGradGradGradGradGradGradGradGradGradGradGradGradGradGradGrad
 Berny optimization.
 Initialization pass.
                           ----------------------------
                           !    Initial Parameters    !
                           ! (Angstroms and Degrees)  !
 --------------------------                            --------------------------
 ! Name  Definition              Value          Derivative Info.                !
 --------------------------------------------------------------------------------
 ! R1    R(1,2)                  1.3941         estimate D2E/DX2                !
 ! R2    R(1,3)                  1.3928         estimate D2E/DX2                !
 ! R3    R(1,4)                  1.0873         estimate D2E/DX2                !
 ! R4    R(2,5)                  1.3993         estimate D2E/DX2                !
 ! R5    R(2,6)                  1.0864         estimate D2E/DX2                !
 ! R6    R(3,7)                  1.3926         estimate D2E/DX2                !
 ! R7    R(3,8)                  1.0874         estimate D2E/DX2                !
 ! R8    R(5,9)                  1.3973         estimate D2E/DX2                !
 ! R9    R(5,12)                 1.5255         estimate D2E/DX2                !
 ! R10   R(7,9)                  1.3936         estimate D2E/DX2                !
 ! R11   R(7,10)                 1.0873         estimate D2E/DX2                !
 ! R12   R(9,11)                 1.0875         estimate D2E/DX2                !
 ! R13   R(12,13)                1.5499         estimate D2E/DX2                !
 ! R14   R(12,17)                1.4299         estimate D2E/DX2                !
 ! R15   R(12,18)                1.0919         estimate D2E/DX2                !
 ! R16   R(13,14)                1.5272         estimate D2E/DX2                !
 ! R17   R(13,15)                1.0919         estimate D2E/DX2                !
 ! R18   R(13,16)                1.0927         estimate D2E/DX2                !
 ! R19   R(14,21)                1.3981         estimate D2E/DX2                !
 ! R20   R(14,26)                1.3994         estimate D2E/DX2                !
 ! R21   R(17,19)                0.9752         estimate D2E/DX2                !
 ! R22   R(17,20)                1.4727         estimate D2E/DX2                !
 ! R23   R(20,31)                1.1037         estimate D2E/DX2                !
 ! R24   R(21,22)                1.3937         estimate D2E/DX2                !
 ! R25   R(21,23)                1.0875         estimate D2E/DX2                !
 ! R26   R(22,24)                1.3924         estimate D2E/DX2                !
 ! R27   R(22,25)                1.0873         estimate D2E/DX2                !
 ! R28   R(24,27)                1.3925         estimate D2E/DX2                !
 ! R29   R(24,28)                1.0873         estimate D2E/DX2                !
 ! R30   R(26,27)                1.3938         estimate D2E/DX2                !
 ! R31   R(26,29)                1.0861         estimate D2E/DX2                !
 ! R32   R(27,30)                1.0872         estimate D2E/DX2                !
 ! R33   R(31,32)                1.1027         estimate D2E/DX2                !
 ! R34   R(32,33)                1.4721         estimate D2E/DX2                !
 ! R35   R(33,34)                0.9748         estimate D2E/DX2                !
 ! A1    A(2,1,3)              120.1194         estimate D2E/DX2                !
 ! A2    A(2,1,4)              119.9695         estimate D2E/DX2                !
 ! A3    A(3,1,4)              119.9111         estimate D2E/DX2                !
 ! A4    A(1,2,5)              120.3793         estimate D2E/DX2                !
 ! A5    A(1,2,6)              119.0276         estimate D2E/DX2                !
 ! A6    A(5,2,6)              120.5919         estimate D2E/DX2                !
 ! A7    A(1,3,7)              119.8473         estimate D2E/DX2                !
 ! A8    A(1,3,8)              120.0959         estimate D2E/DX2                !
 ! A9    A(7,3,8)              120.0566         estimate D2E/DX2                !
 ! A10   A(2,5,9)              119.0637         estimate D2E/DX2                !
 ! A11   A(2,5,12)             121.719          estimate D2E/DX2                !
 ! A12   A(9,5,12)             119.2146         estimate D2E/DX2                !
 ! A13   A(3,7,9)              120.0343         estimate D2E/DX2                !
 ! A14   A(3,7,10)             119.9986         estimate D2E/DX2                !
 ! A15   A(9,7,10)             119.9668         estimate D2E/DX2                !
 ! A16   A(5,9,7)              120.5453         estimate D2E/DX2                !
 ! A17   A(5,9,11)             120.092          estimate D2E/DX2                !
 ! A18   A(7,9,11)             119.3626         estimate D2E/DX2                !
 ! A19   A(5,12,13)            113.1131         estimate D2E/DX2                !
 ! A20   A(5,12,17)            110.3903         estimate D2E/DX2                !
 ! A21   A(5,12,18)            107.7731         estimate D2E/DX2                !
 ! A22   A(13,12,17)           110.5553         estimate D2E/DX2                !
 ! A23   A(13,12,18)           107.5004         estimate D2E/DX2                !
 ! A24   A(17,12,18)           107.2557         estimate D2E/DX2                !
 ! A25   A(12,13,14)           115.1547         estimate D2E/DX2                !
 ! A26   A(12,13,15)           109.1668         estimate D2E/DX2                !
 ! A27   A(12,13,16)           108.6405         estimate D2E/DX2                !
 ! A28   A(14,13,15)           108.8096         estimate D2E/DX2                !
 ! A29   A(14,13,16)           108.2234         estimate D2E/DX2                !
 ! A30   A(15,13,16)           106.5            estimate D2E/DX2                !
 ! A31   A(13,14,21)           119.4173         estimate D2E/DX2                !
 ! A32   A(13,14,26)           121.5581         estimate D2E/DX2                !
 ! A33   A(21,14,26)           118.975          estimate D2E/DX2                !
 ! A34   A(12,17,19)           110.7769         estimate D2E/DX2                !
 ! A35   A(12,17,20)           147.0943         estimate D2E/DX2                !
 ! A36   A(19,17,20)           100.0876         estimate D2E/DX2                !
 ! A37   A(14,21,22)           120.5607         estimate D2E/DX2                !
 ! A38   A(14,21,23)           120.2261         estimate D2E/DX2                !
 ! A39   A(22,21,23)           119.2098         estimate D2E/DX2                !
 ! A40   A(21,22,24)           120.0518         estimate D2E/DX2                !
 ! A41   A(21,22,25)           119.9794         estimate D2E/DX2                !
 ! A42   A(24,22,25)           119.968          estimate D2E/DX2                !
 ! A43   A(22,24,27)           119.8348         estimate D2E/DX2                !
 ! A44   A(22,24,28)           120.0767         estimate D2E/DX2                !
 ! A45   A(27,24,28)           120.0873         estimate D2E/DX2                !
 ! A46   A(14,26,27)           120.4454         estimate D2E/DX2                !
 ! A47   A(14,26,29)           120.7156         estimate D2E/DX2                !
 ! A48   A(27,26,29)           118.8373         estimate D2E/DX2                !
 ! A49   A(24,27,26)           120.1262         estimate D2E/DX2                !
 ! A50   A(24,27,30)           119.9215         estimate D2E/DX2                !
 ! A51   A(26,27,30)           119.9502         estimate D2E/DX2                !
 ! A52   A(20,31,32)           103.2752         estimate D2E/DX2                !
 ! A53   A(32,33,34)            98.4615         estimate D2E/DX2                !
 ! A54   L(17,20,31,28,-1)     171.6085         estimate D2E/DX2                !
 ! A55   L(31,32,33,11,-1)     183.2368         estimate D2E/DX2                !
 ! A56   L(17,20,31,28,-2)     178.709          estimate D2E/DX2                !
 ! A57   L(31,32,33,11,-2)     175.8329         estimate D2E/DX2                !
 ! D1    D(3,1,2,5)              0.7001         estimate D2E/DX2                !
 ! D2    D(3,1,2,6)           -179.6945         estimate D2E/DX2                !
 ! D3    D(4,1,2,5)           -179.2045         estimate D2E/DX2                !
 ! D4    D(4,1,2,6)              0.4009         estimate D2E/DX2                !
 ! D5    D(2,1,3,7)              0.2078         estimate D2E/DX2                !
 ! D6    D(2,1,3,8)           -179.9582         estimate D2E/DX2                !
 ! D7    D(4,1,3,7)           -179.8876         estimate D2E/DX2                !
 ! D8    D(4,1,3,8)             -0.0536         estimate D2E/DX2                !
 ! D9    D(1,2,5,9)             -1.2087         estimate D2E/DX2                !
 ! D10   D(1,2,5,12)           178.1884         estimate D2E/DX2                !
 ! D11   D(6,2,5,9)            179.1922         estimate D2E/DX2                !
 ! D12   D(6,2,5,12)            -1.4108         estimate D2E/DX2                !
 ! D13   D(1,3,7,9)             -0.5909         estimate D2E/DX2                !
 ! D14   D(1,3,7,10)           179.6192         estimate D2E/DX2                !
 ! D15   D(8,3,7,9)            179.575          estimate D2E/DX2                !
 ! D16   D(8,3,7,10)            -0.2149         estimate D2E/DX2                !
 ! D17   D(2,5,9,7)              0.8254         estimate D2E/DX2                !
 ! D18   D(2,5,9,11)          -179.3075         estimate D2E/DX2                !
 ! D19   D(12,5,9,7)          -178.5869         estimate D2E/DX2                !
 ! D20   D(12,5,9,11)            1.2801         estimate D2E/DX2                !
 ! D21   D(2,5,12,13)          -48.3115         estimate D2E/DX2                !
 ! D22   D(2,5,12,17)           76.1546         estimate D2E/DX2                !
 ! D23   D(2,5,12,18)         -167.007          estimate D2E/DX2                !
 ! D24   D(9,5,12,13)          131.0846         estimate D2E/DX2                !
 ! D25   D(9,5,12,17)         -104.4493         estimate D2E/DX2                !
 ! D26   D(9,5,12,18)           12.3891         estimate D2E/DX2                !
 ! D27   D(3,7,9,5)              0.0692         estimate D2E/DX2                !
 ! D28   D(3,7,9,11)          -179.7988         estimate D2E/DX2                !
 ! D29   D(10,7,9,5)           179.8593         estimate D2E/DX2                !
 ! D30   D(10,7,9,11)           -0.0087         estimate D2E/DX2                !
 ! D31   D(5,12,13,14)        -174.3885         estimate D2E/DX2                !
 ! D32   D(5,12,13,15)          62.905          estimate D2E/DX2                !
 ! D33   D(5,12,13,16)         -52.8535         estimate D2E/DX2                !
 ! D34   D(17,12,13,14)         61.2353         estimate D2E/DX2                !
 ! D35   D(17,12,13,15)        -61.4711         estimate D2E/DX2                !
 ! D36   D(17,12,13,16)       -177.2296         estimate D2E/DX2                !
 ! D37   D(18,12,13,14)        -55.5351         estimate D2E/DX2                !
 ! D38   D(18,12,13,15)       -178.2416         estimate D2E/DX2                !
 ! D39   D(18,12,13,16)         65.9999         estimate D2E/DX2                !
 ! D40   D(5,12,17,19)         -63.1509         estimate D2E/DX2                !
 ! D41   D(5,12,17,20)          95.4684         estimate D2E/DX2                !
 ! D42   D(13,12,17,19)         62.7685         estimate D2E/DX2                !
 ! D43   D(13,12,17,20)       -138.6122         estimate D2E/DX2                !
 ! D44   D(18,12,17,19)        179.6902         estimate D2E/DX2                !
 ! D45   D(18,12,17,20)        -21.6904         estimate D2E/DX2                !
 ! D46   D(12,13,14,21)       -138.8674         estimate D2E/DX2                !
 ! D47   D(12,13,14,26)         43.7206         estimate D2E/DX2                !
 ! D48   D(15,13,14,21)        -15.9702         estimate D2E/DX2                !
 ! D49   D(15,13,14,26)        166.6178         estimate D2E/DX2                !
 ! D50   D(16,13,14,21)         99.372          estimate D2E/DX2                !
 ! D51   D(16,13,14,26)        -78.04           estimate D2E/DX2                !
 ! D52   D(13,14,21,22)       -177.9771         estimate D2E/DX2                !
 ! D53   D(13,14,21,23)          1.35           estimate D2E/DX2                !
 ! D54   D(26,14,21,22)         -0.4979         estimate D2E/DX2                !
 ! D55   D(26,14,21,23)        178.8293         estimate D2E/DX2                !
 ! D56   D(13,14,26,27)        178.3425         estimate D2E/DX2                !
 ! D57   D(13,14,26,29)         -1.1863         estimate D2E/DX2                !
 ! D58   D(21,14,26,27)          0.9193         estimate D2E/DX2                !
 ! D59   D(21,14,26,29)       -178.6094         estimate D2E/DX2                !
 ! D60   D(12,17,31,32)         47.9588         estimate D2E/DX2                !
 ! D61   D(19,17,31,32)       -146.0152         estimate D2E/DX2                !
 ! D62   D(14,21,22,24)         -0.1076         estimate D2E/DX2                !
 ! D63   D(14,21,22,25)        179.5895         estimate D2E/DX2                !
 ! D64   D(23,21,22,24)       -179.4415         estimate D2E/DX2                !
 ! D65   D(23,21,22,25)          0.2555         estimate D2E/DX2                !
 ! D66   D(21,22,24,27)          0.2994         estimate D2E/DX2                !
 ! D67   D(21,22,24,28)        179.9061         estimate D2E/DX2                !
 ! D68   D(25,22,24,27)       -179.3977         estimate D2E/DX2                !
 ! D69   D(25,22,24,28)          0.2091         estimate D2E/DX2                !
 ! D70   D(22,24,27,26)          0.1211         estimate D2E/DX2                !
 ! D71   D(22,24,27,30)        179.5954         estimate D2E/DX2                !
 ! D72   D(28,24,27,26)       -179.4856         estimate D2E/DX2                !
 ! D73   D(28,24,27,30)         -0.0113         estimate D2E/DX2                !
 ! D74   D(14,26,27,24)         -0.7376         estimate D2E/DX2                !
 ! D75   D(14,26,27,30)        179.7882         estimate D2E/DX2                !
 ! D76   D(29,26,27,24)        178.7999         estimate D2E/DX2                !
 ! D77   D(29,26,27,30)         -0.6743         estimate D2E/DX2                !
 ! D78   D(20,31,33,34)          2.0434         estimate D2E/DX2                !
 --------------------------------------------------------------------------------
 Trust Radius=3.00D-01 FncErr=1.00D-05 GrdErr=1.00D-04 EigMax=2.50D+02 EigMin=1.00D-04
 Number of steps in this run=    204 maximum allowed number of steps=    204.
 GradGradGradGradGradGradGradGradGradGradGradGradGradGradGradGradGradGrad

                          Input orientation:                          
 ---------------------------------------------------------------------
 Center     Atomic      Atomic             Coordinates (Angstroms)
 Number     Number       Type             X           Y           Z
 ---------------------------------------------------------------------
      1          6           0       -5.342450   -1.207620    1.655820
      2          6           0       -3.978450   -0.968940    1.494070
      3          6           0       -5.869210   -2.466990    1.379420
      4          1           0       -5.996890   -0.409100    1.996850
      5          6           0       -3.131110   -1.985660    1.039800
      6          1           0       -3.585690    0.018590    1.719590
      7          6           0       -5.029450   -3.489380    0.944970
      8          1           0       -6.933240   -2.652540    1.505060
      9          6           0       -3.667260   -3.248640    0.775610
     10          1           0       -5.437050   -4.475160    0.734430
     11          1           0       -3.022010   -4.054060    0.432690
     12          6           0       -1.641560   -1.746820    0.813090
     13          6           0       -1.348970   -0.465930   -0.009080
     14          6           0        0.117410   -0.252520   -0.378500
     15          1           0       -1.702460    0.405140    0.546380
     16          1           0       -1.932080   -0.502790   -0.932400
     17          8           0       -0.946930   -1.711090    2.062390
     18          1           0       -1.249950   -2.595740    0.248900
     19          1           0       -1.255440   -0.964320    2.608520
     20          8           0       -0.161250   -2.454350    3.061920
     21          6           0        0.665800    1.031090   -0.299020
     22          6           0        1.989330    1.260460   -0.670440
     23          1           0        0.058640    1.865540    0.044100
     24          6           0        2.779050    0.206900   -1.123380
     25          1           0        2.404190    2.263760   -0.611180
     26          6           0        0.914990   -1.302650   -0.847000
     27          6           0        2.241170   -1.074590   -1.210070
     28          1           0        3.811220    0.385670   -1.414700
     29          1           0        0.511190   -2.306450   -0.941510
     30          1           0        2.854570   -1.897010   -1.569780
     31          1           0        0.558340   -2.942410    3.741790
     32          8           0        1.334850   -3.323190    3.057650
     33          8           0        2.435690   -3.716970    2.163110
     34          1           0        2.077390   -3.360910    1.329390
 ---------------------------------------------------------------------
                    Distance matrix (angstroms):
                    1          2          3          4          5
     1  C    0.000000
     2  C    1.394140   0.000000
     3  C    1.392798   2.415010   0.000000
     4  H    1.087303   2.154138   2.152309   0.000000
     5  C    2.423809   1.399309   2.800752   3.407959   0.000000
     6  H    2.143330   1.086432   3.392387   2.464483   2.164665
     7  C    2.410333   2.785450   1.392561   3.395661   2.423605
     8  H    2.154329   3.400796   1.087370   2.480248   3.888109
     9  C    2.783306   2.410406   2.413327   3.870606   1.397273
    10  H    3.396281   3.872744   2.153026   4.294179   3.407084
    11  H    3.870751   3.399893   3.394354   4.958048   2.158417
    12  C    3.833734   2.555364   4.325783   4.707407   1.525517
    13  C    4.389747   3.070284   5.134661   5.062622   2.566272
    14  C    5.904299   4.560246   6.620708   6.561362   3.945660
    15  H    4.132963   2.822471   5.128829   4.605321   2.828503
    16  H    4.338927   3.208221   4.970270   5.011184   2.743383
    17  O    4.442902   3.172363   5.026597   5.215512   2.427287
    18  H    4.544762   3.411985   4.757333   5.510913   2.129902
    19  H    4.203627   2.942245   5.005555   4.812874   2.649935
    20  O    5.511469   4.385842   5.950779   6.274720   3.623356
    21  C    6.703155   5.365105   7.600005   7.192816   5.030879
    22  C    8.078236   6.728278   8.936020   8.583797   6.299295
    23  H    6.419792   5.141477   7.462794   6.756971   5.098791
    24  C    8.699631   7.341488   9.391810   9.334474   6.664582
    25  H    8.786364   7.457917   9.736099   9.193701   7.170973
    26  C    6.740081   5.434862   7.234501   7.527284   4.516353
    27  C    8.108163   6.782861   8.626848   8.865261   5.895198
    28  H    9.785517   8.424658  10.471652  10.414862   7.735872
    29  H    6.497588   5.279948   6.791317   7.388437   4.158707
    30  H    8.835773   7.545771   9.226429   9.658316   6.530401
    31  H    6.494620   5.434086   6.864417   7.241099   4.672062
    32  O    7.143325   6.018175   7.446342   7.960630   5.079912
    33  O    8.188629   7.010027   8.434926   9.059694   5.937047
    34  H    7.732868   6.513205   7.996877   8.622800   5.394780
                    6          7          8          9         10
     6  H    0.000000
     7  C    3.871735   0.000000
     8  H    4.288012   2.153699   0.000000
     9  C    3.401844   1.393628   3.399126   0.000000
    10  H    4.959018   1.087303   2.480806   2.153649   0.000000
    11  H    4.308170   2.147349   4.290916   1.087494   2.469978
    12  C    2.778139   3.812048   5.413042   2.521969   4.675016
    13  C    2.868096   4.857715   6.185302   3.705898   5.774005
    14  C    4.264790   6.222460   7.682419   4.963107   7.065503
    15  H    2.252198   5.137609   6.134292   4.154888   6.148159
    16  H    3.168488   4.694458   5.964414   3.669856   5.553635
    17  O    3.173698   4.591069   6.085462   3.379358   5.437347
    18  H    3.801754   3.945596   5.820734   2.558728   4.615167
    19  H    2.680741   4.835957   6.025373   3.794015   5.772701
    20  O    4.432163   5.408524   6.951470   4.260307   6.110233
    21  C    4.814053   7.376858   8.635348   6.184362   8.284418
    22  C    6.191553   8.627503   9.982816   7.376995   9.487999
    23  H    4.415839   7.441465   8.451854   6.369637   8.419242
    24  C    6.973368   8.883312  10.460099   7.556575   9.637294
    25  H    6.808226   9.527813  10.762717   8.316985  10.426349
    26  C    5.346885   6.582500   8.303560   5.236101   7.274211
    27  C    6.612885   7.958475   9.696992   6.601436   8.619746
    28  H    8.041940   9.936876  11.541193   8.598449  10.666627
    29  H    5.410332   5.971333   7.843789   4.614723   6.549323
    30  H    7.481071   8.427181  10.287210   7.061305   8.983719
    31  H    5.479945   6.272541   7.823730   5.171817   6.880279
    32  O    6.096689   6.707857   8.439290   5.498579   7.251415
    33  O    7.099869   7.567297   9.452137   6.276184   8.037165
    34  H    6.606342   7.118389   9.040138   5.772372   7.619865
                   11         12         13         14         15
    11  H    0.000000
    12  C    2.715456   0.000000
    13  C    3.983579   1.549920   0.000000
    14  C    4.996568   2.597459   1.527182   0.000000
    15  H    4.651731   2.169280   1.091904   2.144725   0.000000
    16  H    3.957643   2.163041   1.092655   2.137721   1.750386
    17  O    3.528652   1.429873   2.450112   3.036147   2.710635
    18  H    2.302319   1.091940   2.147661   2.784598   3.049351
    19  H    4.171510   1.996237   2.666265   3.363579   2.515486
    20  O    4.201889   2.783730   3.846496   4.094166   4.108522
    21  C    6.324088   3.778556   2.526743   1.398107   2.591365
    22  C    7.387459   4.942465   3.816028   2.424546   3.980143
    23  H    6.684540   4.065854   2.723958   2.160607   2.342334
    24  C    7.364063   5.206605   4.328385   2.801828   4.786578
    25  H    8.393340   5.872086   4.679737   3.408103   4.653922
    26  C    4.970697   3.080444   2.554941   1.399428   3.421856
    27  C    6.267134   4.429522   3.834312   2.424389   4.563654
    28  H    8.355662   6.264453   5.415584   3.889117   5.852083
    29  H    4.174454   2.833044   2.777973   2.165796   3.803522
    30  H    6.572438   5.090757   4.706753   3.408158   5.526712
    31  H    5.000481   3.853087   4.882603   4.940315   5.150529
    32  O    5.138756   4.047469   4.977113   4.766372   5.425143
    33  O    5.735370   4.725253   5.441629   4.882276   6.060519
    34  H    5.223831   4.086862   4.681063   4.052221   5.392912
                   16         17         18         19         20
    16  H    0.000000
    17  O    3.376281   0.000000
    18  H    2.498242   2.040385   0.000000
    19  H    3.634414   0.975244   2.868687   0.000000
    20  O    4.785292   1.472681   3.019659   1.903421   0.000000
    21  C    3.082684   3.961907   4.138141   4.015795   4.912049
    22  C    4.307567   4.992003   5.119414   5.121499   5.688174
    23  H    3.244304   4.228114   4.653748   4.038708   5.274186
    24  C    4.768111   5.264099   5.096154   5.619248   5.765792
    25  H    5.153661   5.846145   6.140620   5.846354   6.506436
    26  C    2.958526   3.478235   2.749553   4.094613   4.214779
    27  C    4.221383   4.612820   4.078040   5.178810   5.091685
    28  H    5.831592   6.255122   6.105064   6.609071   6.624678
    29  H    3.036913   3.391752   2.145316   4.186288   4.062204
    30  H    5.026144   5.261048   4.543446   5.934668   5.555038
    31  H    5.831123   2.569508   3.948465   2.913235   1.103737
    32  O    5.877754   2.965793   3.885801   3.532080   1.730091
    33  O    6.244241   3.933932   4.301779   4.626004   3.024263
    34  H    5.418523   3.522174   3.581080   4.299718   2.972376
                   21         22         23         24         25
    21  C    0.000000
    22  C    1.393662   0.000000
    23  H    1.087512   2.145752   0.000000
    24  C    2.413438   1.392408   3.393336   0.000000
    25  H    2.153815   1.087305   2.467707   2.152566   0.000000
    26  C    2.410129   2.784764   3.400709   2.414508   3.872029
    27  C    2.783108   2.409789   3.870497   1.392497   3.395560
    28  H    3.399261   2.153709   4.289519   1.087291   2.480443
    29  H    3.402333   3.870559   4.310653   3.390161   4.957760
    30  H    3.870312   3.395154   4.957682   2.152072   4.293456
    31  H    5.668192   6.259363   6.085967   6.206415   7.032760
    32  O    5.538467   5.944480   6.134583   5.659352   6.768886
    33  O    5.633708   5.744828   6.426896   5.129880   6.592936
    34  H    4.892236   5.036282   5.748313   4.386077   5.958987
                   26         27         28         29         30
    26  C    0.000000
    27  C    1.393766   0.000000
    28  H    3.400126   2.153901   0.000000
    29  H    1.086094   2.140662   4.285046   0.000000
    30  H    2.153519   1.087210   2.479891   2.460446   0.000000
    31  H    4.886001   5.553520   6.945987   4.726517   5.880332
    32  O    4.416464   4.908264   6.315850   4.207785   5.075101
    33  O    4.147557   4.289330   5.614665   3.915601   4.173989
    34  H    3.213142   3.420956   4.957122   2.953279   3.339491
                   31         32         33         34
    31  H    0.000000
    32  O    1.102728   0.000000
    33  O    2.572279   1.472112   0.000000
    34  H    2.881376   1.881401   0.974806   0.000000
 Stoichiometry    C14H16O4
 Framework group  C1[X(C14H16O4)]
 Deg. of freedom    96
 Full point group                 C1      NOp   1
 Largest Abelian subgroup         C1      NOp   1
 Largest concise Abelian subgroup C1      NOp   1
                         Standard orientation:                         
 ---------------------------------------------------------------------
 Center     Atomic      Atomic             Coordinates (Angstroms)
 Number     Number       Type             X           Y           Z
 ---------------------------------------------------------------------
      1          6           0       -4.265793   -1.111357   -0.785932
      2          6           0       -2.879745   -0.967839   -0.829533
      3          6           0       -4.997863   -0.518801    0.240146
      4          1           0       -4.776531   -1.688106   -1.553222
      5          6           0       -2.211960   -0.241402    0.162646
      6          1           0       -2.326811   -1.433342   -1.640647
      7          6           0       -4.342627    0.221541    1.220853
      8          1           0       -6.078837   -0.631552    0.274160
      9          6           0       -2.956282    0.358364    1.181781
     10          1           0       -4.912346    0.690352    2.019516
     11          1           0       -2.455480    0.936205    1.955047
     12          6           0       -0.693093   -0.099204    0.167417
     13          6           0        0.044885   -1.448083   -0.027941
     14          6           0        1.564993   -1.381260    0.102793
     15          1           0       -0.206500   -1.855403   -1.009344
     16          1           0       -0.330470   -2.161555    0.709596
     17          8           0       -0.278272    0.847689   -0.820437
     18          1           0       -0.398587    0.298233    1.140888
     19          1           0       -0.513242    0.539413   -1.715343
     20          8           0        0.096712    2.240485   -1.117580
     21          6           0        2.363325   -2.104875   -0.788134
     22          6           0        3.751465   -2.094595   -0.664614
     23          1           0        1.905362   -2.692206   -1.580594
     24          6           0        4.355725   -1.357987    0.350806
     25          1           0        4.362929   -2.666142   -1.358644
     26          6           0        2.180691   -0.654237    1.127856
     27          6           0        3.569353   -0.637104    1.245788
     28          1           0        5.438597   -1.350905    0.448478
     29          1           0        1.586830   -0.100412    1.849111
     30          1           0        4.039380   -0.066775    2.043174
     31          1           0        0.532072    3.231619   -1.332873
     32          8           0        1.324144    3.330937   -0.572107
     33          8           0        2.464954    3.410727    0.354878
     34          1           0        2.374885    2.532900    0.769069
 ---------------------------------------------------------------------
 Rotational constants (GHZ):           0.5656312           0.2309385           0.1844885
 Standard basis: 6-311+G(2df,2p) (5D, 7F)
 There are   846 symmetry adapted cartesian basis functions of A   symmetry.
 There are   756 symmetry adapted basis functions of A   symmetry.
   756 basis functions,  1112 primitive gaussians,   846 cartesian basis functions
    66 alpha electrons       66 beta electrons
       nuclear repulsion energy      1264.6182498898 Hartrees.
 NAtoms=   34 NActive=   34 NUniq=   34 SFac= 1.00D+00 NAtFMM=   60 NAOKFM=F Big=F
 Integral buffers will be    131072 words long.
 Raffenetti 2 integral format.
 Two-electron integral symmetry is turned on.
 One-electron integrals computed using PRISM.
 NBasis=   756 RedAO= T EigKep=  1.32D-06  NBF=   756
 NBsUse=   755 1.00D-06 EigRej=  7.57D-07 NBFU=   755
 ExpMin= 4.38D-02 ExpMax= 8.59D+03 ExpMxC= 1.30D+03 IAcc=2 IRadAn=         4 AccDes= 0.00D+00
 Harris functional with IExCor= 1009 and IRadAn=       4 diagonalized for initial guess.
 HarFok:  IExCor= 1009 AccDes= 0.00D+00 IRadAn=         4 IDoV= 1 UseB2=F ITyADJ=14
 ICtDFT=  3500011 ScaDFX=  1.000000  1.000000  1.000000  1.000000
 FoFCou: FMM=F IPFlag=           0 FMFlag=      100000 FMFlg1=           0
         NFxFlg=           0 DoJE=T BraDBF=F KetDBF=T FulRan=T
         wScrn=  0.000000 ICntrl=       500 IOpCl=  0 I1Cent=   200000004 NGrid=           0
         NMat0=    1 NMatS0=      1 NMatT0=    0 NMatD0=    1 NMtDS0=    0 NMtDT0=    0
 Petite list used in FoFCou.
 Requested convergence on RMS density matrix=1.00D-08 within 128 cycles.
 Requested convergence on MAX density matrix=1.00D-06.
 Requested convergence on             energy=1.00D-06.
 No special actions if energy rises.
 Restarting incremental Fock formation.
 SCF Done:  E(RM062X) =  -843.415474353     A.U. after   23 cycles
            NFock= 23  Conv=0.35D-08     -V/T= 2.0032

 **********************************************************************

            Population analysis using the SCF density.

 **********************************************************************

 Orbital symmetries:
       Occupied  (A) (A) (A) (A) (A) (A) (A) (A) (A) (A) (A) (A)
                 (A) (A) (A) (A) (A) (A) (A) (A) (A) (A) (A) (A)
                 (A) (A) (A) (A) (A) (A) (A) (A) (A) (A) (A) (A)
                 (A) (A) (A) (A) (A) (A) (A) (A) (A) (A) (A) (A)
                 (A) (A) (A) (A) (A) (A) (A) (A) (A) (A) (A) (A)
                 (A) (A) (A) (A) (A) (A)
       Virtual   (A) (A) (A) (A) (A) (A) (A) (A) (A) (A) (A) (A)
                 (A) (A) (A) (A) (A) (A) (A) (A) (A) (A) (A) (A)
                 (A) (A) (A) (A) (A) (A) (A) (A) (A) (A) (A) (A)
                 (A) (A) (A) (A) (A) (A) (A) (A) (A) (A) (A) (A)
                 (A) (A) (A) (A) (A) (A) (A) (A) (A) (A) (A) (A)
                 (A) (A) (A) (A) (A) (A) (A) (A) (A) (A) (A) (A)
                 (A) (A) (A) (A) (A) (A) (A) (A) (A) (A) (A) (A)
                 (A) (A) (A) (A) (A) (A) (A) (A) (A) (A) (A) (A)
                 (A) (A) (A) (A) (A) (A) (A) (A) (A) (A) (A) (A)
                 (A) (A) (A) (A) (A) (A) (A) (A) (A) (A) (A) (A)
                 (A) (A) (A) (A) (A) (A) (A) (A) (A) (A) (A) (A)
                 (A) (A) (A) (A) (A) (A) (A) (A) (A) (A) (A) (A)
                 (A) (A) (A) (A) (A) (A) (A) (A) (A) (A) (A) (A)
                 (A) (A) (A) (A) (A) (A) (A) (A) (A) (A) (A) (A)
                 (A) (A) (A) (A) (A) (A) (A) (A) (A) (A) (A) (A)
                 (A) (A) (A) (A) (A) (A) (A) (A) (A) (A) (A) (A)
                 (A) (A) (A) (A) (A) (A) (A) (A) (A) (A) (A) (A)
                 (A) (A) (A) (A) (A) (A) (A) (A) (A) (A) (A) (A)
                 (A) (A) (A) (A) (A) (A) (A) (A) (A) (A) (A) (A)
                 (A) (A) (A) (A) (A) (A) (A) (A) (A) (A) (A) (A)
                 (A) (A) (A) (A) (A) (A) (A) (A) (A) (A) (A) (A)
                 (A) (A) (A) (A) (A) (A) (A) (A) (A) (A) (A) (A)
                 (A) (A) (A) (A) (A) (A) (A) (A) (A) (A) (A) (A)
                 (A) (A) (A) (A) (A) (A) (A) (A) (A) (A) (A) (A)
                 (A) (A) (A) (A) (A) (A) (A) (A) (A) (A) (A) (A)
                 (A) (A) (A) (A) (A) (A) (A) (A) (A) (A) (A) (A)
                 (A) (A) (A) (A) (A) (A) (A) (A) (A) (A) (A) (A)
                 (A) (A) (A) (A) (A) (A) (A) (A) (A) (A) (A) (A)
                 (A) (A) (A) (A) (A) (A) (A) (A) (A) (A) (A) (A)
                 (A) (A) (A) (A) (A) (A) (A) (A) (A) (A) (A) (A)
                 (A) (A) (A) (A) (A) (A) (A) (A) (A) (A) (A) (A)
                 (A) (A) (A) (A) (A) (A) (A) (A) (A) (A) (A) (A)
                 (A) (A) (A) (A) (A) (A) (A) (A) (A) (A) (A) (A)
                 (A) (A) (A) (A) (A) (A) (A) (A) (A) (A) (A) (A)
                 (A) (A) (A) (A) (A) (A) (A) (A) (A) (A) (A) (A)
                 (A) (A) (A) (A) (A) (A) (A) (A) (A) (A) (A) (A)
                 (A) (A) (A) (A) (A) (A) (A) (A) (A) (A) (A) (A)
                 (A) (A) (A) (A) (A) (A) (A) (A) (A) (A) (A) (A)
                 (A) (A) (A) (A) (A) (A) (A) (A) (A) (A) (A) (A)
                 (A) (A) (A) (A) (A) (A) (A) (A) (A) (A) (A) (A)
                 (A) (A) (A) (A) (A) (A) (A) (A) (A) (A) (A) (A)
                 (A) (A) (A) (A) (A) (A) (A) (A) (A) (A) (A) (A)
                 (A) (A) (A) (A) (A) (A) (A) (A) (A) (A) (A) (A)
                 (A) (A) (A) (A) (A) (A) (A) (A) (A) (A) (A) (A)
                 (A) (A) (A) (A) (A) (A) (A) (A) (A) (A) (A) (A)
                 (A) (A) (A) (A) (A) (A) (A) (A) (A) (A) (A) (A)
                 (A) (A) (A) (A) (A) (A) (A) (A) (A) (A) (A) (A)
                 (A) (A) (A) (A) (A) (A) (A) (A) (A) (A) (A) (A)
                 (A) (A) (A) (A) (A) (A) (A) (A) (A) (A) (A) (A)
                 (A) (A) (A) (A) (A) (A) (A) (A) (A) (A) (A) (A)
                 (A) (A) (A) (A) (A) (A) (A) (A) (A) (A) (A) (A)
                 (A) (A) (A) (A) (A) (A) (A) (A) (A) (A) (A) (A)
                 (A) (A) (A) (A) (A) (A) (A) (A) (A) (A) (A) (A)
                 (A) (A) (A) (A) (A) (A) (A) (A) (A) (A) (A) (A)
                 (A) (A) (A) (A) (A) (A) (A) (A) (A) (A) (A) (A)
                 (A) (A) (A) (A) (A) (A) (A) (A) (A) (A) (A) (A)
                 (A) (A) (A) (A) (A) (A) (A) (A) (A) (A) (A) (A)
                 (A) (A) (A) (A) (A)
 The electronic state is 1-A.
 Alpha  occ. eigenvalues --  -19.72835 -19.67666 -19.60327 -19.57021 -10.64393
 Alpha  occ. eigenvalues --  -10.57832 -10.57650 -10.57238 -10.57014 -10.56637
 Alpha  occ. eigenvalues --  -10.56598 -10.56427 -10.56350 -10.55940 -10.55798
 Alpha  occ. eigenvalues --  -10.55775 -10.55674 -10.55411  -1.27073  -1.17977
 Alpha  occ. eigenvalues --   -1.07659  -0.98892  -0.97931  -0.93663  -0.89544
 Alpha  occ. eigenvalues --   -0.87609  -0.86589  -0.85770  -0.82393  -0.77101
 Alpha  occ. eigenvalues --   -0.71582  -0.70728  -0.70145  -0.68422  -0.66956
 Alpha  occ. eigenvalues --   -0.63828  -0.60448  -0.59985  -0.57300  -0.55722
 Alpha  occ. eigenvalues --   -0.54589  -0.54381  -0.53860  -0.52832  -0.51509
 Alpha  occ. eigenvalues --   -0.50732  -0.50150  -0.49713  -0.47877  -0.46737
 Alpha  occ. eigenvalues --   -0.46060  -0.45227  -0.44789  -0.44227  -0.42588
 Alpha  occ. eigenvalues --   -0.42336  -0.41297  -0.40704  -0.38600  -0.34999
 Alpha  occ. eigenvalues --   -0.33118  -0.32926  -0.32325  -0.31599  -0.26543
 Alpha  occ. eigenvalues --   -0.22029
 Alpha virt. eigenvalues --   -0.05651  -0.01263  -0.00782  -0.00314  -0.00026
 Alpha virt. eigenvalues --    0.00198   0.00511   0.00776   0.01824   0.02258
 Alpha virt. eigenvalues --    0.02384   0.03322   0.03677   0.03726   0.05528
 Alpha virt. eigenvalues --    0.05607   0.05959   0.06221   0.06452   0.07260
 Alpha virt. eigenvalues --    0.08244   0.08705   0.08817   0.09289   0.10072
 Alpha virt. eigenvalues --    0.11088   0.11380   0.11557   0.12246   0.12704
 Alpha virt. eigenvalues --    0.12750   0.13063   0.13652   0.13904   0.14277
 Alpha virt. eigenvalues --    0.14372   0.14934   0.15141   0.15197   0.15521
 Alpha virt. eigenvalues --    0.16046   0.16557   0.17092   0.17269   0.17574
 Alpha virt. eigenvalues --    0.18276   0.18321   0.19013   0.19274   0.19775
 Alpha virt. eigenvalues --    0.20017   0.20226   0.20405   0.20840   0.20942
 Alpha virt. eigenvalues --    0.21220   0.21469   0.21834   0.22080   0.22280
 Alpha virt. eigenvalues --    0.22489   0.22724   0.22818   0.23222   0.23493
 Alpha virt. eigenvalues --    0.23668   0.24336   0.24655   0.24806   0.25253
 Alpha virt. eigenvalues --    0.25520   0.26531   0.26599   0.26681   0.27255
 Alpha virt. eigenvalues --    0.27273   0.27786   0.28290   0.29001   0.29128
 Alpha virt. eigenvalues --    0.29975   0.30425   0.30668   0.30885   0.31350
 Alpha virt. eigenvalues --    0.32102   0.33103   0.33281   0.33969   0.34769
 Alpha virt. eigenvalues --    0.35143   0.35347   0.36191   0.37059   0.37481
 Alpha virt. eigenvalues --    0.37785   0.38098   0.38532   0.39425   0.39842
 Alpha virt. eigenvalues --    0.41230   0.42367   0.42581   0.43975   0.44507
 Alpha virt. eigenvalues --    0.45421   0.47267   0.47911   0.49271   0.49868
 Alpha virt. eigenvalues --    0.50747   0.50991   0.51826   0.52561   0.53251
 Alpha virt. eigenvalues --    0.53375   0.54022   0.54466   0.54553   0.54657
 Alpha virt. eigenvalues --    0.55277   0.55807   0.56155   0.56978   0.57410
 Alpha virt. eigenvalues --    0.57946   0.58855   0.59335   0.59935   0.60606
 Alpha virt. eigenvalues --    0.61235   0.62388   0.62778   0.63260   0.63884
 Alpha virt. eigenvalues --    0.63992   0.64337   0.65044   0.65344   0.65564
 Alpha virt. eigenvalues --    0.65697   0.66401   0.66516   0.66858   0.67172
 Alpha virt. eigenvalues --    0.67449   0.67635   0.68071   0.68204   0.68605
 Alpha virt. eigenvalues --    0.69236   0.69352   0.69983   0.70392   0.71061
 Alpha virt. eigenvalues --    0.71295   0.71605   0.71898   0.72318   0.72758
 Alpha virt. eigenvalues --    0.73138   0.73433   0.73630   0.74267   0.74782
 Alpha virt. eigenvalues --    0.75198   0.76296   0.77472   0.78367   0.78731
 Alpha virt. eigenvalues --    0.79391   0.80084   0.80849   0.81088   0.81740
 Alpha virt. eigenvalues --    0.82375   0.82724   0.82997   0.83738   0.84374
 Alpha virt. eigenvalues --    0.84653   0.85064   0.85754   0.86478   0.87343
 Alpha virt. eigenvalues --    0.88296   0.88934   0.89650   0.91301   0.92470
 Alpha virt. eigenvalues --    0.92814   0.93872   0.95855   0.96503   0.97834
 Alpha virt. eigenvalues --    0.98511   0.99515   1.00560   1.00694   1.01249
 Alpha virt. eigenvalues --    1.01820   1.02286   1.03665   1.04351   1.05073
 Alpha virt. eigenvalues --    1.06186   1.07225   1.07737   1.08030   1.09358
 Alpha virt. eigenvalues --    1.09895   1.10061   1.10695   1.11361   1.12501
 Alpha virt. eigenvalues --    1.13669   1.14148   1.14465   1.14953   1.16047
 Alpha virt. eigenvalues --    1.16345   1.18195   1.18262   1.19017   1.19762
 Alpha virt. eigenvalues --    1.20351   1.21147   1.21956   1.22534   1.22865
 Alpha virt. eigenvalues --    1.23414   1.23613   1.25771   1.26055   1.27028
 Alpha virt. eigenvalues --    1.27454   1.28278   1.28785   1.30060   1.30427
 Alpha virt. eigenvalues --    1.30957   1.31127   1.31593   1.32449   1.32733
 Alpha virt. eigenvalues --    1.33597   1.34247   1.34928   1.35350   1.35911
 Alpha virt. eigenvalues --    1.36707   1.37031   1.37622   1.37955   1.38675
 Alpha virt. eigenvalues --    1.39450   1.40366   1.40925   1.41158   1.41612
 Alpha virt. eigenvalues --    1.41819   1.42594   1.43188   1.43852   1.45098
 Alpha virt. eigenvalues --    1.45947   1.46317   1.46906   1.47179   1.47506
 Alpha virt. eigenvalues --    1.48489   1.49016   1.49438   1.49686   1.50624
 Alpha virt. eigenvalues --    1.50954   1.52266   1.53332   1.54492   1.56313
 Alpha virt. eigenvalues --    1.56506   1.58020   1.58665   1.60878   1.61381
 Alpha virt. eigenvalues --    1.62892   1.64622   1.65372   1.66237   1.66667
 Alpha virt. eigenvalues --    1.67979   1.68592   1.70033   1.70798   1.71140
 Alpha virt. eigenvalues --    1.71660   1.72588   1.73102   1.74602   1.75360
 Alpha virt. eigenvalues --    1.75925   1.76832   1.77424   1.79132   1.79956
 Alpha virt. eigenvalues --    1.81879   1.82259   1.83256   1.85545   1.87409
 Alpha virt. eigenvalues --    1.89709   1.90025   1.93820   1.95478   1.97710
 Alpha virt. eigenvalues --    2.00437   2.01474   2.01772   2.02493   2.03277
 Alpha virt. eigenvalues --    2.03712   2.05331   2.10225   2.12757   2.14982
 Alpha virt. eigenvalues --    2.18989   2.21524   2.22083   2.22921   2.27799
 Alpha virt. eigenvalues --    2.29856   2.35727   2.37223   2.42477   2.49797
 Alpha virt. eigenvalues --    2.52005   2.53137   2.54287   2.55399   2.56572
 Alpha virt. eigenvalues --    2.58781   2.59732   2.60035   2.61373   2.63527
 Alpha virt. eigenvalues --    2.64448   2.66055   2.66819   2.68369   2.70227
 Alpha virt. eigenvalues --    2.71454   2.72465   2.73430   2.73929   2.74176
 Alpha virt. eigenvalues --    2.75170   2.75757   2.76099   2.76257   2.77136
 Alpha virt. eigenvalues --    2.77885   2.78089   2.79263   2.79654   2.80126
 Alpha virt. eigenvalues --    2.80904   2.81137   2.81574   2.82912   2.83024
 Alpha virt. eigenvalues --    2.83486   2.84004   2.84283   2.85632   2.85830
 Alpha virt. eigenvalues --    2.86497   2.86658   2.87006   2.87175   2.87920
 Alpha virt. eigenvalues --    2.89012   2.89289   2.90918   2.91060   2.91753
 Alpha virt. eigenvalues --    2.91977   2.93418   2.94134   2.94535   2.95967
 Alpha virt. eigenvalues --    2.96602   2.97902   2.98022   2.99781   3.00608
 Alpha virt. eigenvalues --    3.01078   3.02667   3.03631   3.07764   3.08497
 Alpha virt. eigenvalues --    3.09132   3.09862   3.10398   3.11914   3.12755
 Alpha virt. eigenvalues --    3.13669   3.13922   3.14138   3.15649   3.16381
 Alpha virt. eigenvalues --    3.16674   3.17345   3.17618   3.17937   3.19025
 Alpha virt. eigenvalues --    3.19565   3.20110   3.20520   3.21658   3.23059
 Alpha virt. eigenvalues --    3.23712   3.23834   3.24225   3.25760   3.26954
 Alpha virt. eigenvalues --    3.28197   3.28921   3.29689   3.30034   3.30872
 Alpha virt. eigenvalues --    3.31244   3.31766   3.32907   3.33805   3.34696
 Alpha virt. eigenvalues --    3.35641   3.36349   3.37421   3.38109   3.38459
 Alpha virt. eigenvalues --    3.38816   3.39887   3.40854   3.41897   3.42293
 Alpha virt. eigenvalues --    3.43050   3.44271   3.44725   3.44954   3.46233
 Alpha virt. eigenvalues --    3.47007   3.47722   3.48626   3.49910   3.51215
 Alpha virt. eigenvalues --    3.51704   3.52248   3.53847   3.54827   3.55857
 Alpha virt. eigenvalues --    3.56611   3.57769   3.58005   3.59032   3.60662
 Alpha virt. eigenvalues --    3.61972   3.64981   3.66657   3.67371   3.67603
 Alpha virt. eigenvalues --    3.68534   3.69283   3.70217   3.70375   3.71154
 Alpha virt. eigenvalues --    3.71728   3.72301   3.72668   3.73948   3.74709
 Alpha virt. eigenvalues --    3.75909   3.76427   3.76568   3.77982   3.79029
 Alpha virt. eigenvalues --    3.79654   3.80238   3.81162   3.81854   3.82560
 Alpha virt. eigenvalues --    3.83128   3.83877   3.85661   3.86405   3.87028
 Alpha virt. eigenvalues --    3.87694   3.88339   3.90138   3.90817   3.91995
 Alpha virt. eigenvalues --    3.92609   3.94634   3.95220   3.95666   3.97572
 Alpha virt. eigenvalues --    3.99951   4.00328   4.01506   4.03296   4.03994
 Alpha virt. eigenvalues --    4.04518   4.06205   4.06595   4.07101   4.07982
 Alpha virt. eigenvalues --    4.08525   4.09563   4.11118   4.11516   4.12169
 Alpha virt. eigenvalues --    4.13356   4.14630   4.16102   4.17305   4.19194
 Alpha virt. eigenvalues --    4.21375   4.23131   4.23432   4.25262   4.27352
 Alpha virt. eigenvalues --    4.28298   4.28502   4.29802   4.31676   4.32735
 Alpha virt. eigenvalues --    4.33536   4.33766   4.34235   4.35276   4.35552
 Alpha virt. eigenvalues --    4.36308   4.36926   4.37624   4.39021   4.39667
 Alpha virt. eigenvalues --    4.39947   4.41423   4.43030   4.43609   4.44314
 Alpha virt. eigenvalues --    4.44700   4.45067   4.45745   4.46219   4.47247
 Alpha virt. eigenvalues --    4.47863   4.50255   4.51649   4.53156   4.54301
 Alpha virt. eigenvalues --    4.55625   4.56059   4.58922   4.60832   4.61729
 Alpha virt. eigenvalues --    4.62985   4.64050   4.66803   4.67025   4.67855
 Alpha virt. eigenvalues --    4.69854   4.71370   4.72172   4.73507   4.76375
 Alpha virt. eigenvalues --    4.77196   4.79914   4.82008   4.82655   4.87173
 Alpha virt. eigenvalues --    4.91791   4.92609   4.94757   4.98087   5.00896
 Alpha virt. eigenvalues --    5.01561   5.02980   5.03815   5.04913   5.06555
 Alpha virt. eigenvalues --    5.07060   5.07359   5.08153   5.08304   5.09466
 Alpha virt. eigenvalues --    5.13637   5.13799   5.16421   5.18215   5.18709
 Alpha virt. eigenvalues --    5.19279   5.20114   5.21157   5.23096   5.24110
 Alpha virt. eigenvalues --    5.26894   5.29176   5.30363   5.32764   5.35054
 Alpha virt. eigenvalues --    5.36385   5.37810   5.38789   5.39799   5.41950
 Alpha virt. eigenvalues --    5.43523   5.45462   5.48243   5.49768   5.53150
 Alpha virt. eigenvalues --    5.53284   5.57911   5.61949   5.64133   5.66273
 Alpha virt. eigenvalues --    5.67165   5.68554   5.69399   5.71954   5.72905
 Alpha virt. eigenvalues --    5.73504   5.73755   5.74812   5.75994   5.76636
 Alpha virt. eigenvalues --    5.78561   5.81533   5.81719   6.02403   6.03900
 Alpha virt. eigenvalues --    6.12368   6.13701   6.16447   6.26621   6.47208
 Alpha virt. eigenvalues --    6.48101   6.52766   6.76933   6.82437   6.87714
 Alpha virt. eigenvalues --    6.91921   6.93946   6.94271   7.00965   7.01354
 Alpha virt. eigenvalues --    7.08035   7.10561   7.15059   7.21211   7.25783
 Alpha virt. eigenvalues --    7.30966   7.34882   7.39646   7.45778   7.47825
 Alpha virt. eigenvalues --    7.64863   7.82642   7.89321   7.94372   8.19116
 Alpha virt. eigenvalues --    8.41466  23.89070  23.92667  24.41944  24.45893
 Alpha virt. eigenvalues --   24.46316  24.47304  24.48408  24.51801  24.69798
 Alpha virt. eigenvalues --   24.70309  24.72095  24.72779  25.16375  25.17048
 Alpha virt. eigenvalues --   50.03308  50.08477  50.13772  50.18948
          Condensed to atoms (all electrons):
               1          2          3          4          5          6
     1  C    7.115314  -1.557600   0.171007   0.318949  -0.008822   0.047924
     2  C   -1.557600  15.586990   0.539631   0.024147  -1.862874   0.218177
     3  C    0.171007   0.539631   5.699565   0.052678  -0.812595  -0.035246
     4  H    0.318949   0.024147   0.052678   0.484956  -0.000156  -0.006901
     5  C   -0.008822  -1.862874  -0.812595  -0.000156  11.767591   0.080001
     6  H    0.047924   0.218177  -0.035246  -0.006901   0.080001   0.475595
     7  C    0.197497  -0.217054   0.292522  -0.010032   0.183226   0.012721
     8  H    0.011757  -0.000437   0.345377  -0.006530   0.012838  -0.000103
     9  C   -0.053236  -5.721851   0.202393  -0.001600  -1.817285  -0.024861
    10  H   -0.007296   0.000961   0.034139  -0.000069   0.026759   0.000045
    11  H    0.004694  -0.043399  -0.007276   0.000045  -0.033410  -0.000097
    12  C    0.076457  -0.836046  -0.347664  -0.003962  -1.208284   0.095675
    13  C   -0.060757  -1.337666   0.026615   0.000306  -1.482168  -0.025722
    14  C    0.145939   1.110630  -0.011534  -0.000837   1.419902   0.002162
    15  H    0.017143   0.011973  -0.004145  -0.000017  -0.024299   0.002321
    16  H   -0.000558   0.073449   0.003208   0.000004  -0.033326  -0.000332
    17  O    0.019328   0.044113   0.001252   0.000105  -0.127393  -0.000855
    18  H    0.012615  -0.008679  -0.000688   0.000008  -0.073197   0.000036
    19  H   -0.015516  -0.146669  -0.004254   0.000002   0.138673   0.000205
    20  O    0.024125   0.087857   0.004807   0.000012   0.028612   0.000564
    21  C   -0.004517  -0.219970  -0.000913   0.000021  -0.176060   0.002969
    22  C   -0.000068   0.047917  -0.000647  -0.000000   0.089900  -0.000582
    23  H   -0.000310   0.000907  -0.000036   0.000000   0.000259   0.000026
    24  C    0.003151   0.003193   0.000506   0.000000  -0.040289   0.000019
    25  H    0.000001  -0.000044   0.000000   0.000000  -0.000193   0.000000
    26  C    0.019064   0.101445   0.005116  -0.000017  -0.386500  -0.001345
    27  C   -0.009013  -0.055206  -0.002411  -0.000002   0.176708   0.000225
    28  H   -0.000002  -0.000021   0.000000   0.000000  -0.000047  -0.000000
    29  H   -0.000157  -0.003082  -0.000010   0.000000  -0.000562  -0.000002
    30  H   -0.000001  -0.000043   0.000000   0.000000  -0.000792   0.000000
    31  H   -0.000488   0.007288   0.000109  -0.000000  -0.009864  -0.000001
    32  O   -0.001970  -0.004906  -0.000259   0.000000   0.023231  -0.000007
    33  O    0.000166  -0.003943   0.000044   0.000000  -0.004033  -0.000000
    34  H    0.000014  -0.000679  -0.000020   0.000000  -0.000484   0.000000
               7          8          9         10         11         12
     1  C    0.197497   0.011757  -0.053236  -0.007296   0.004694   0.076457
     2  C   -0.217054  -0.000437  -5.721851   0.000961  -0.043399  -0.836046
     3  C    0.292522   0.345377   0.202393   0.034139  -0.007276  -0.347664
     4  H   -0.010032  -0.006530  -0.001600  -0.000069   0.000045  -0.003962
     5  C    0.183226   0.012838  -1.817285   0.026759  -0.033410  -1.208284
     6  H    0.012721  -0.000103  -0.024861   0.000045  -0.000097   0.095675
     7  C    6.966439   0.031465  -1.378808   0.333059   0.042899  -0.068749
     8  H    0.031465   0.476181  -0.023549  -0.006494  -0.000088   0.004099
     9  C   -1.378808  -0.023549  14.079932  -0.003639   0.366268   0.165026
    10  H    0.333059  -0.006494  -0.003639   0.482811  -0.006438  -0.003917
    11  H    0.042899  -0.000088   0.366268  -0.006438   0.472689   0.043291
    12  C   -0.068749   0.004099   0.165026  -0.003917   0.043291   8.714617
    13  C   -0.263884  -0.000396   1.602592  -0.000189  -0.000279  -0.330843
    14  C    0.139030  -0.000046  -1.304359  -0.000207  -0.002038  -0.539853
    15  H    0.005999   0.000000  -0.031605   0.000000  -0.000006   0.075685
    16  H    0.000753   0.000000  -0.030114   0.000002   0.000111  -0.031457
    17  O   -0.021688  -0.000001  -0.107508   0.000064  -0.000217  -0.171315
    18  H    0.025677  -0.000004   0.016681  -0.000040   0.004206   0.435183
    19  H    0.021058   0.000001   0.081990   0.000002  -0.000003  -0.049698
    20  O   -0.009666  -0.000003  -0.054817   0.000014   0.000610   0.349175
    21  C   -0.012583   0.000003   0.149096   0.000008  -0.000741   0.382206
    22  C    0.007707  -0.000000  -0.028736  -0.000003   0.000061   0.048752
    23  H    0.000126   0.000000  -0.000769   0.000000   0.000000   0.014538
    24  C   -0.005247   0.000000   0.005009   0.000001   0.000021   0.033365
    25  H   -0.000003   0.000000   0.000012   0.000000   0.000000  -0.000943
    26  C   -0.006639  -0.000019   0.008460  -0.000057   0.003160  -0.050153
    27  C    0.022579  -0.000001  -0.028866  -0.000001   0.000461  -0.297197
    28  H   -0.000000  -0.000000   0.000013  -0.000000   0.000000  -0.000603
    29  H   -0.000221   0.000000   0.003309   0.000000  -0.000039  -0.022329
    30  H   -0.000018   0.000000   0.000003   0.000000   0.000000   0.000949
    31  H    0.000747  -0.000000  -0.003057  -0.000000  -0.000040  -0.009871
    32  O   -0.000129   0.000000  -0.006197  -0.000000  -0.000104  -0.026244
    33  O   -0.000585  -0.000000   0.009188   0.000000   0.000022   0.026688
    34  H   -0.000266   0.000000  -0.001082  -0.000000   0.000010   0.003149
              13         14         15         16         17         18
     1  C   -0.060757   0.145939   0.017143  -0.000558   0.019328   0.012615
     2  C   -1.337666   1.110630   0.011973   0.073449   0.044113  -0.008679
     3  C    0.026615  -0.011534  -0.004145   0.003208   0.001252  -0.000688
     4  H    0.000306  -0.000837  -0.000017   0.000004   0.000105   0.000008
     5  C   -1.482168   1.419902  -0.024299  -0.033326  -0.127393  -0.073197
     6  H   -0.025722   0.002162   0.002321  -0.000332  -0.000855   0.000036
     7  C   -0.263884   0.139030   0.005999   0.000753  -0.021688   0.025677
     8  H   -0.000396  -0.000046   0.000000   0.000000  -0.000001  -0.000004
     9  C    1.602592  -1.304359  -0.031605  -0.030114  -0.107508   0.016681
    10  H   -0.000189  -0.000207   0.000000   0.000002   0.000064  -0.000040
    11  H   -0.000279  -0.002038  -0.000006   0.000111  -0.000217   0.004206
    12  C   -0.330843  -0.539853   0.075685  -0.031457  -0.171315   0.435183
    13  C   15.648114  -8.267090   0.318056   0.356876   0.189120  -0.082319
    14  C   -8.267090  18.660549  -0.147858  -0.018479  -0.011156  -0.020238
    15  H    0.318056  -0.147858   0.490548  -0.020396  -0.007611   0.005222
    16  H    0.356876  -0.018479  -0.020396   0.467744   0.010667  -0.003180
    17  O    0.189120  -0.011156  -0.007611   0.010667   9.550578  -0.059810
    18  H   -0.082319  -0.020238   0.005222  -0.003180  -0.059810   0.437416
    19  H   -0.086273   0.059477   0.001070  -0.000622   0.136696   0.003607
    20  O   -0.393149   0.087439   0.004384   0.001761  -1.900487   0.046104
    21  C    2.458169  -5.201657   0.248790  -0.067637  -0.086547   0.007541
    22  C   -1.439294   1.889691   0.031745   0.008790  -0.012269   0.003931
    23  H    0.029444   0.018099   0.002735   0.000734  -0.000719  -0.000024
    24  C    0.277655  -1.431879   0.001824  -0.001326   0.004885  -0.002741
    25  H    0.014515   0.006004  -0.000047  -0.000000   0.000006   0.000000
    26  C    0.395261  -3.616148  -0.160739   0.066479   0.113156   0.003175
    27  C   -1.029673   1.937116  -0.008729   0.004126  -0.022791   0.033373
    28  H    0.008331   0.013649  -0.000004  -0.000002   0.000004   0.000000
    29  H    0.094395   0.063507  -0.000090  -0.000352   0.001263   0.001560
    30  H    0.009613  -0.011629   0.000006  -0.000006  -0.000002  -0.000070
    31  H    0.008372  -0.000408   0.000029   0.000001   0.105303   0.000499
    32  O    0.002955   0.008567   0.000145  -0.000068   0.335678  -0.005187
    33  O   -0.008766  -0.034288   0.000008   0.000007  -0.044911  -0.000200
    34  H   -0.002046  -0.022134  -0.000024   0.000010  -0.015160   0.000383
              19         20         21         22         23         24
     1  C   -0.015516   0.024125  -0.004517  -0.000068  -0.000310   0.003151
     2  C   -0.146669   0.087857  -0.219970   0.047917   0.000907   0.003193
     3  C   -0.004254   0.004807  -0.000913  -0.000647  -0.000036   0.000506
     4  H    0.000002   0.000012   0.000021  -0.000000   0.000000   0.000000
     5  C    0.138673   0.028612  -0.176060   0.089900   0.000259  -0.040289
     6  H    0.000205   0.000564   0.002969  -0.000582   0.000026   0.000019
     7  C    0.021058  -0.009666  -0.012583   0.007707   0.000126  -0.005247
     8  H    0.000001  -0.000003   0.000003  -0.000000   0.000000   0.000000
     9  C    0.081990  -0.054817   0.149096  -0.028736  -0.000769   0.005009
    10  H    0.000002   0.000014   0.000008  -0.000003   0.000000   0.000001
    11  H   -0.000003   0.000610  -0.000741   0.000061   0.000000   0.000021
    12  C   -0.049698   0.349175   0.382206   0.048752   0.014538   0.033365
    13  C   -0.086273  -0.393149   2.458169  -1.439294   0.029444   0.277655
    14  C    0.059477   0.087439  -5.201657   1.889691   0.018099  -1.431879
    15  H    0.001070   0.004384   0.248790   0.031745   0.002735   0.001824
    16  H   -0.000622   0.001761  -0.067637   0.008790   0.000734  -0.001326
    17  O    0.136696  -1.900487  -0.086547  -0.012269  -0.000719   0.004885
    18  H    0.003607   0.046104   0.007541   0.003931  -0.000024  -0.002741
    19  H    0.492115   0.147062  -0.022100   0.009238   0.000090  -0.003852
    20  O    0.147062  10.623600   0.036612   0.021605  -0.000029  -0.003898
    21  C   -0.022100   0.036612  12.528914  -1.900812   0.310753   1.113270
    22  C    0.009238   0.021605  -1.900812   7.048221   0.063300  -0.436465
    23  H    0.000090  -0.000029   0.310753   0.063300   0.486578  -0.014873
    24  C   -0.003852  -0.003898   1.113270  -0.436465  -0.014873   6.163449
    25  H   -0.000004  -0.000001   0.026770   0.301240  -0.006894   0.048763
    26  C   -0.022854  -0.024127  -1.620142  -0.808062  -0.059294   1.336346
    27  C    0.012226  -0.015379  -1.711330   1.482633   0.007716  -1.239794
    28  H    0.000000   0.000000  -0.013552   0.030583  -0.000096   0.327723
    29  H   -0.000037  -0.002870  -0.029174   0.004541  -0.000039  -0.025970
    30  H   -0.000004  -0.000023   0.010425  -0.024083   0.000045   0.076429
    31  H   -0.005932  -0.065351   0.002056  -0.000701  -0.000000  -0.000062
    32  O   -0.006551  -0.689875   0.012515  -0.006156  -0.000000   0.005042
    33  O    0.001733   0.082167  -0.003634   0.008630  -0.000001  -0.013491
    34  H    0.000119   0.027559  -0.006105   0.003752   0.000001  -0.001929
              25         26         27         28         29         30
     1  C    0.000001   0.019064  -0.009013  -0.000002  -0.000157  -0.000001
     2  C   -0.000044   0.101445  -0.055206  -0.000021  -0.003082  -0.000043
     3  C    0.000000   0.005116  -0.002411   0.000000  -0.000010   0.000000
     4  H    0.000000  -0.000017  -0.000002   0.000000   0.000000   0.000000
     5  C   -0.000193  -0.386500   0.176708  -0.000047  -0.000562  -0.000792
     6  H    0.000000  -0.001345   0.000225  -0.000000  -0.000002   0.000000
     7  C   -0.000003  -0.006639   0.022579  -0.000000  -0.000221  -0.000018
     8  H    0.000000  -0.000019  -0.000001  -0.000000   0.000000   0.000000
     9  C    0.000012   0.008460  -0.028866   0.000013   0.003309   0.000003
    10  H    0.000000  -0.000057  -0.000001  -0.000000   0.000000   0.000000
    11  H    0.000000   0.003160   0.000461   0.000000  -0.000039   0.000000
    12  C   -0.000943  -0.050153  -0.297197  -0.000603  -0.022329   0.000949
    13  C    0.014515   0.395261  -1.029673   0.008331   0.094395   0.009613
    14  C    0.006004  -3.616148   1.937116   0.013649   0.063507  -0.011629
    15  H   -0.000047  -0.160739  -0.008729  -0.000004  -0.000090   0.000006
    16  H   -0.000000   0.066479   0.004126  -0.000002  -0.000352  -0.000006
    17  O    0.000006   0.113156  -0.022791   0.000004   0.001263  -0.000002
    18  H    0.000000   0.003175   0.033373   0.000000   0.001560  -0.000070
    19  H   -0.000004  -0.022854   0.012226   0.000000  -0.000037  -0.000004
    20  O   -0.000001  -0.024127  -0.015379   0.000000  -0.002870  -0.000023
    21  C    0.026770  -1.620142  -1.711330  -0.013552  -0.029174   0.010425
    22  C    0.301240  -0.808062   1.482633   0.030583   0.004541  -0.024083
    23  H   -0.006894  -0.059294   0.007716  -0.000096  -0.000039   0.000045
    24  C    0.048763   1.336346  -1.239794   0.327723  -0.025970   0.076429
    25  H    0.487431  -0.005844  -0.012340  -0.006581   0.000056  -0.000049
    26  C   -0.005844  14.221636  -3.633839  -0.011441   0.217254   0.069575
    27  C   -0.012340  -3.633839  10.502417   0.025989   0.071838   0.249101
    28  H   -0.006581  -0.011441   0.025989   0.479043  -0.000098  -0.006651
    29  H    0.000056   0.217254   0.071838  -0.000098   0.474952  -0.006690
    30  H   -0.000049   0.069575   0.249101  -0.006651  -0.006690   0.484229
    31  H    0.000000  -0.001368  -0.000968  -0.000000   0.000088   0.000000
    32  O    0.000001  -0.006235  -0.008801  -0.000002   0.001276   0.000038
    33  O   -0.000004   0.021055   0.022907   0.000007  -0.001281  -0.000217
    34  H    0.000002   0.005829   0.041395   0.000004  -0.001284  -0.000666
              31         32         33         34
     1  C   -0.000488  -0.001970   0.000166   0.000014
     2  C    0.007288  -0.004906  -0.003943  -0.000679
     3  C    0.000109  -0.000259   0.000044  -0.000020
     4  H   -0.000000   0.000000   0.000000   0.000000
     5  C   -0.009864   0.023231  -0.004033  -0.000484
     6  H   -0.000001  -0.000007  -0.000000   0.000000
     7  C    0.000747  -0.000129  -0.000585  -0.000266
     8  H   -0.000000   0.000000  -0.000000   0.000000
     9  C   -0.003057  -0.006197   0.009188  -0.001082
    10  H   -0.000000  -0.000000   0.000000  -0.000000
    11  H   -0.000040  -0.000104   0.000022   0.000010
    12  C   -0.009871  -0.026244   0.026688   0.003149
    13  C    0.008372   0.002955  -0.008766  -0.002046
    14  C   -0.000408   0.008567  -0.034288  -0.022134
    15  H    0.000029   0.000145   0.000008  -0.000024
    16  H    0.000001  -0.000068   0.000007   0.000010
    17  O    0.105303   0.335678  -0.044911  -0.015160
    18  H    0.000499  -0.005187  -0.000200   0.000383
    19  H   -0.005932  -0.006551   0.001733   0.000119
    20  O   -0.065351  -0.689875   0.082167   0.027559
    21  C    0.002056   0.012515  -0.003634  -0.006105
    22  C   -0.000701  -0.006156   0.008630   0.003752
    23  H   -0.000000  -0.000000  -0.000001   0.000001
    24  C   -0.000062   0.005042  -0.013491  -0.001929
    25  H    0.000000   0.000001  -0.000004   0.000002
    26  C   -0.001368  -0.006235   0.021055   0.005829
    27  C   -0.000968  -0.008801   0.022907   0.041395
    28  H   -0.000000  -0.000002   0.000007   0.000004
    29  H    0.000088   0.001276  -0.001281  -0.001284
    30  H    0.000000   0.000038  -0.000217  -0.000666
    31  H    0.347850   0.182172  -0.068913  -0.000693
    32  O    0.182172   8.535790   0.092191  -0.072904
    33  O   -0.068913   0.092191   8.039582   0.213709
    34  H   -0.000693  -0.072904   0.213709   0.519004
 Mulliken charges:
               1
     1  C   -0.464836
     2  C    0.161490
     3  C   -0.151273
     4  H    0.148891
     5  C    0.154936
     6  H    0.157389
     7  C   -0.287930
     8  H    0.155950
     9  C   -0.068034
    10  H    0.150484
    11  H    0.155627
    12  C   -0.469728
    13  C   -0.629876
    14  C    1.080079
    15  H    0.187887
    16  H    0.213135
    17  O    0.078221
    18  H    0.219161
    19  H    0.259007
    20  O   -0.414392
    21  C   -0.212641
    22  C   -0.444360
    23  H    0.147732
    24  C   -0.178833
    25  H    0.148144
    26  C   -0.172186
    27  C   -0.514469
    28  H    0.153753
    29  H    0.160250
    30  H    0.150529
    31  H    0.513203
    32  O   -0.364005
    33  O   -0.333840
    34  H    0.310537
 Sum of Mulliken charges =  -0.00000
 Mulliken charges with hydrogens summed into heavy atoms:
               1
     1  C   -0.315945
     2  C    0.318879
     3  C    0.004677
     5  C    0.154936
     7  C   -0.137446
     9  C    0.087593
    12  C   -0.250567
    13  C   -0.228854
    14  C    1.080079
    17  O    0.337228
    20  O   -0.414392
    21  C   -0.064909
    22  C   -0.296217
    24  C   -0.025080
    26  C   -0.011937
    27  C   -0.363940
    32  O    0.149198
    33  O   -0.023303
 Electronic spatial extent (au):  <R**2>=           5887.5101
 Charge=             -0.0000 electrons
 Dipole moment (field-independent basis, Debye):
    X=             -3.1246    Y=             -6.9921    Z=              0.6776  Tot=              7.6884
 Quadrupole moment (field-independent basis, Debye-Ang):
   XX=            -92.7929   YY=           -130.8320   ZZ=            -97.9052
   XY=             -9.4271   XZ=              3.0413   YZ=             10.3031
 Traceless Quadrupole moment (field-independent basis, Debye-Ang):
   XX=             14.3838   YY=            -23.6553   ZZ=              9.2715
   XY=             -9.4271   XZ=              3.0413   YZ=             10.3031
 Octapole moment (field-independent basis, Debye-Ang**2):
  XXX=            -14.9965  YYY=            -44.4343  ZZZ=            -13.4883  XYY=            -31.6703
  XXY=            -23.1812  XXZ=             12.9036  XZZ=             -0.4410  YZZ=             16.9602
  YYZ=            -12.5706  XYZ=              4.2685
 Hexadecapole moment (field-independent basis, Debye-Ang**3):
 XXXX=          -4840.9930 YYYY=          -2187.2672 ZZZZ=           -566.4321 XXXY=            -11.9010
 XXXZ=             -3.5873 YYYX=           -100.4432 YYYZ=             18.1133 ZZZX=              5.7412
 ZZZY=             16.0194 XXYY=          -1332.5337 XXZZ=           -977.5313 YYZZ=           -385.0390
 XXYZ=            115.8753 YYXZ=             -9.3220 ZZXY=             15.9207
 N-N= 1.264618249890D+03 E-N=-4.499397035272D+03  KE= 8.407421838668D+02
 Calling FoFJK, ICntrl=      2127 FMM=F ISym2X=0 I1Cent= 0 IOpClX= 0 NMat=1 NMatS=1 NMatT=0.
 ***** Axes restored to original set *****
 -------------------------------------------------------------------
 Center     Atomic                   Forces (Hartrees/Bohr)
 Number     Number              X              Y              Z
 -------------------------------------------------------------------
      1        6           0.002475726    0.000297049    0.001055385
      2        6          -0.002313124   -0.003273661   -0.000828213
      3        6           0.000772425   -0.000716183   -0.000537622
      4        1           0.002992672   -0.003102119   -0.001368182
      5        6           0.001719363   -0.001182618   -0.005516273
      6        1          -0.000322087   -0.001821410   -0.001237199
      7        6           0.000462011    0.001284925    0.000429040
      8        1           0.003980225    0.000748687   -0.000332938
      9        6          -0.002887259    0.001042420    0.000565520
     10        1           0.001819812    0.003823094    0.000906301
     11        1          -0.001102924    0.003535085    0.001381914
     12        6          -0.031012307   -0.011356598   -0.022387793
     13        6           0.011261932   -0.001958769    0.008566847
     14        6          -0.003490832   -0.000879708    0.002911321
     15        1          -0.000322180   -0.000332375   -0.000751973
     16        1          -0.003058197   -0.004303845    0.002328863
     17        8          -0.082117644    0.116239373   -0.016201068
     18        1           0.002861626   -0.001302568    0.007503138
     19        1          -0.001913609    0.000394525   -0.014639108
     20        8          -0.022245327    0.000238277   -0.057254155
     21        6           0.002967312   -0.003252572   -0.001054104
     22        6          -0.000197273   -0.001374729   -0.000988972
     23        1           0.000933395   -0.003690205   -0.000387721
     24        6           0.000079277    0.000712590   -0.000013368
     25        1          -0.001837496   -0.004083743    0.000048982
     26        6           0.002233192    0.003773418    0.000886698
     27        6          -0.001794949    0.001077533    0.000030637
     28        1          -0.003884434   -0.000705646    0.001577172
     29        1           0.000363969    0.002919322    0.000600742
     30        1          -0.002386193    0.002851645    0.001484407
     31        1           0.041142737   -0.017756417    0.041970182
     32        8           0.109931703   -0.107934994    0.033986311
     33        8          -0.029699743    0.032445054    0.011763942
     34        1           0.004588197   -0.002354835    0.005501288
 -------------------------------------------------------------------
 Cartesian Forces:  Max     0.116239373 RMS     0.023740871

 GradGradGradGradGradGradGradGradGradGradGradGradGradGradGradGradGradGrad
 Berny optimization.
 FormGI is forming the generalized inverse of G from B-inverse, IUseBI=4.
 Internal  Forces:  Max     0.205871445 RMS     0.027077007
 Search for a local minimum.
 Step number   1 out of a maximum of  204
 All quantities printed in internal units (Hartrees-Bohrs-Radians)
 Mixed Optimization -- RFO/linear search
 Second derivative matrix not updated -- first step.
 ITU=  0
     Eigenvalues ---    0.00230   0.00230   0.00230   0.00230   0.00230
     Eigenvalues ---    0.00341   0.00341   0.00406   0.00428   0.01201
     Eigenvalues ---    0.01297   0.01422   0.01432   0.02113   0.02117
     Eigenvalues ---    0.02133   0.02133   0.02144   0.02149   0.02162
     Eigenvalues ---    0.02162   0.02175   0.02179   0.02180   0.02181
     Eigenvalues ---    0.02182   0.02184   0.02186   0.02189   0.03711
     Eigenvalues ---    0.04254   0.05162   0.05260   0.06730   0.09688
     Eigenvalues ---    0.13070   0.15950   0.15999   0.15999   0.16000
     Eigenvalues ---    0.16000   0.16000   0.16000   0.16000   0.16000
     Eigenvalues ---    0.16000   0.16000   0.16000   0.17857   0.18719
     Eigenvalues ---    0.21991   0.21999   0.21999   0.22000   0.22000
     Eigenvalues ---    0.22086   0.23468   0.23475   0.24974   0.24999
     Eigenvalues ---    0.25000   0.27658   0.29685   0.29841   0.33263
     Eigenvalues ---    0.33382   0.34508   0.34589   0.34594   0.35102
     Eigenvalues ---    0.35104   0.35118   0.35126   0.35126   0.35126
     Eigenvalues ---    0.35128   0.35137   0.35228   0.35268   0.35416
     Eigenvalues ---    0.35489   0.41008   0.42121   0.42129   0.42220
     Eigenvalues ---    0.42250   0.45994   0.46035   0.46423   0.46446
     Eigenvalues ---    0.46648   0.46678   0.46819   0.46854   0.52320
     Eigenvalues ---    0.52407
 RFO step:  Lambda=-2.68540146D-01 EMin= 2.30000000D-03
 Linear search not attempted -- first point.
 Maximum step size (   0.300) exceeded in Quadratic search.
    -- Step size scaled by   0.382
 Iteration  1 RMS(Cart)=  0.15497652 RMS(Int)=  0.00882217
 Iteration  2 RMS(Cart)=  0.04099308 RMS(Int)=  0.00059301
 Iteration  3 RMS(Cart)=  0.00145290 RMS(Int)=  0.00031458
 Iteration  4 RMS(Cart)=  0.00000221 RMS(Int)=  0.00031458
 Iteration  5 RMS(Cart)=  0.00000000 RMS(Int)=  0.00031458
 Variable       Old X    -DE/DX   Delta X   Delta X   Delta X     New X
                                 (Linear)    (Quad)   (Total)
    R1        2.63454  -0.00722   0.00000  -0.00377  -0.00377   2.63077
    R2        2.63201  -0.00420   0.00000  -0.00216  -0.00216   2.62984
    R3        2.05470  -0.00450   0.00000  -0.00277  -0.00277   2.05194
    R4        2.64431  -0.00632   0.00000  -0.00335  -0.00335   2.64096
    R5        2.05306  -0.00202   0.00000  -0.00124  -0.00124   2.05182
    R6        2.63156  -0.00497   0.00000  -0.00254  -0.00254   2.62901
    R7        2.05483  -0.00406   0.00000  -0.00250  -0.00250   2.05233
    R8        2.64046  -0.00604   0.00000  -0.00318  -0.00318   2.63729
    R9        2.88281  -0.00831   0.00000  -0.00560  -0.00560   2.87721
   R10        2.63358  -0.00539   0.00000  -0.00278  -0.00278   2.63080
   R11        2.05470  -0.00434   0.00000  -0.00267  -0.00267   2.05203
   R12        2.05507  -0.00350   0.00000  -0.00215  -0.00215   2.05291
   R13        2.92892  -0.01509   0.00000  -0.01057  -0.01058   2.91835
   R14        2.70207   0.01373   0.00000   0.00772   0.00773   2.70980
   R15        2.06347  -0.00184   0.00000  -0.00114  -0.00114   2.06233
   R16        2.88596  -0.00828   0.00000  -0.00559  -0.00559   2.88036
   R17        2.06340  -0.00053   0.00000  -0.00033  -0.00033   2.06307
   R18        2.06482  -0.00020   0.00000  -0.00013  -0.00013   2.06469
   R19        2.64204  -0.00734   0.00000  -0.00390  -0.00390   2.63814
   R20        2.64454  -0.00680   0.00000  -0.00359  -0.00359   2.64095
   R21        1.84295  -0.00731   0.00000  -0.00352  -0.00352   1.83942
   R22        2.78296   0.12683   0.00000   0.07776   0.07776   2.86072
   R23        2.08576   0.18274   0.00000   0.11603   0.11602   2.20178
   R24        2.63364  -0.00582   0.00000  -0.00305  -0.00304   2.63060
   R25        2.05510  -0.00347   0.00000  -0.00214  -0.00214   2.05296
   R26        2.63127  -0.00673   0.00000  -0.00347  -0.00345   2.62782
   R27        2.05471  -0.00446   0.00000  -0.00275  -0.00275   2.05196
   R28        2.63144  -0.00385   0.00000  -0.00194  -0.00196   2.62948
   R29        2.05468  -0.00417   0.00000  -0.00257  -0.00257   2.05211
   R30        2.63384  -0.00446   0.00000  -0.00228  -0.00230   2.63154
   R31        2.05242  -0.00289   0.00000  -0.00177  -0.00177   2.05065
   R32        2.05453  -0.00400   0.00000  -0.00246  -0.00246   2.05207
   R33        2.08385   0.05479   0.00000   0.03472   0.03472   2.11858
   R34        2.78189  -0.03726   0.00000  -0.02282  -0.02282   2.75907
   R35        1.84212  -0.00723   0.00000  -0.00348  -0.00348   1.83864
[...]
 RMS     Displacement     0.000036     0.006667     YES
 Predicted change in Energy=-3.527756D-06
 GradGradGradGradGradGradGradGradGradGradGradGradGradGradGradGradGradGrad

                          Input orientation:                          
 ---------------------------------------------------------------------
 Center     Atomic      Atomic             Coordinates (Angstroms)
 Number     Number       Type             X           Y           Z
 ---------------------------------------------------------------------
      1          6           0       -4.768593   -1.467444    2.092858
      2          6           0       -3.530019   -1.063377    1.606771
      3          6           0       -5.151655   -2.801055    1.998092
      4          1           0       -5.433812   -0.741662    2.543592
      5          6           0       -2.662584   -1.989577    1.027288
      6          1           0       -3.245640   -0.018631    1.683405
      7          6           0       -4.292742   -3.729425    1.423772
      8          1           0       -6.118417   -3.114629    2.375664
      9          6           0       -3.051846   -3.324910    0.943100
     10          1           0       -4.580312   -4.773105    1.360431
     11          1           0       -2.375458   -4.055180    0.523003
     12          6           0       -1.295896   -1.584331    0.520365
     13          6           0       -1.260026   -0.282466   -0.291411
     14          6           0        0.111496    0.129092   -0.790406
     15          1           0       -1.683843    0.527419    0.305789
     16          1           0       -1.943849   -0.412206   -1.134459
     17          8           0       -0.360291   -1.518475    1.640650
     18          1           0       -0.849380   -2.409072   -0.027923
     19          1           0       -0.520182   -0.861159    2.341617
     20          8           0       -0.085343   -2.826133    2.154413
     21          6           0        0.512759    1.462650   -0.698707
     22          6           0        1.756749    1.868764   -1.170601
     23          1           0       -0.153027    2.193913   -0.253280
     24          6           0        2.620655    0.940733   -1.737872
     25          1           0        2.050900    2.909893   -1.089063
     26          6           0        0.989730   -0.795617   -1.358421
     27          6           0        2.234010   -0.392158   -1.829274
     28          1           0        3.593650    1.248075   -2.100072
     29          1           0        0.713474   -1.841907   -1.433258
     30          1           0        2.904027   -1.124470   -2.263449
     31          1           0       -0.868471   -3.693389    3.060043
     32          8           0       -1.054362   -4.661313    3.298057
     33          8           0       -0.278880   -4.899355    4.492890
     34          1           0        0.599557   -5.038172    4.134888
 ---------------------------------------------------------------------
                    Distance matrix (angstroms):
                    1          2          3          4          5
     1  C    0.000000
     2  C    1.390546   0.000000
     3  C    1.390768   2.408809   0.000000
     4  H    1.082791   2.146057   2.149019   0.000000
     5  C    2.417299   1.395023   2.792209   3.396494   0.000000
     6  H    2.141518   1.085467   3.387301   2.459835   2.157561
     7  C    2.406381   2.779037   1.389045   3.388623   2.416958
     8  H    2.148306   3.390963   1.084213   2.475451   3.876421
     9  C    2.778372   2.404920   2.407620   3.861154   1.393459
    10  H    3.391060   3.863402   2.149889   4.287291   3.396571
    11  H    3.858487   3.385033   3.384669   4.941226   2.145568
    12  C    3.813926   2.538302   4.304762   4.682509   1.512955
    13  C    4.404424   3.060356   5.170096   5.066417   2.573007
    14  C    5.888752   4.519852   6.637939   6.528720   3.935516
    15  H    4.085191   2.762527   5.095915   4.547592   2.795311
    16  H    4.416819   3.233311   5.080305   5.080988   2.770890
    17  O    4.431730   3.202411   4.972922   5.211464   2.428725
    18  H    4.554625   3.415983   4.771578   5.514523   2.139429
    19  H    4.298658   3.104836   5.033065   4.919230   2.755117
    20  O    4.876747   3.908071   5.068786   5.753486   2.934691
    21  C    6.653643   5.295290   7.585347   7.122724   4.997973
    22  C    8.022502   6.652906   8.920418   8.503747   6.264823
    23  H    6.341400   5.047158   7.416513   6.657836   5.043740
    24  C    8.664572   7.282437   9.400383   9.275549   6.644204
    25  H    8.705813   7.362136   9.696507   9.085754   7.120440
    26  C    6.746922   5.412226   7.280424   7.516016   4.522891
    27  C    8.097890   6.743958   8.660229   8.834003   5.889680
    28  H    9.740730   8.356444  10.472381  10.344938   7.707350
    29  H    6.528919   5.277795   6.862497   7.403715   4.180175
    30  H    8.829730   7.508613   9.266373   9.631912   6.524149
    31  H    4.593608   4.014076   4.502185   5.460930   3.202173
    32  O    5.044682   4.683425   4.683832   5.925577   3.857583
    33  O    6.139682   5.797785   5.862663   6.903586   5.114611
    34  H    6.762916   6.264485   6.530470   7.575867   5.439915
                    6          7          8          9         10
     6  H    0.000000
     7  C    3.864430   0.000000
     8  H    4.279868   2.148758   0.000000
     9  C    3.393684   1.390863   3.391212   0.000000
    10  H    4.948806   1.084424   2.479316   2.146542   0.000000
    11  H    4.289228   2.143240   4.280973   1.080405   2.465377
    12  C    2.757822   3.794557   5.388938   2.508323   4.654179
    13  C    2.812857   4.901096   6.224017   3.740468   5.823978
    14  C    4.172760   6.260035   7.704384   4.994187   7.118335
    15  H    2.152953   5.116343   6.100356   4.137395   6.131668
    16  H    3.128885   4.802686   6.086959   3.745365   5.673875
    17  O    3.252169   4.516581   6.020296   3.315759   5.336639
    18  H    3.792745   3.963268   5.834191   2.575364   4.629906
    19  H    2.927665   4.827172   6.034858   3.799373   5.722822
    20  O    4.253399   4.364857   6.044019   3.242869   4.962444
    21  C    4.689799   7.386163   8.624136   6.190531   8.310479
    22  C    6.060652   8.640997   9.971380   7.386783   9.522546
    23  H    4.267359   7.418603   8.407011   6.347589   8.410960
    24  C    6.858494   8.921963  10.475615   7.586869   9.700585
    25  H    6.657038   9.520329  10.725526   8.309059  10.440375
    26  C    5.272075   6.652243   8.357449   5.294210   7.364641
    27  C    6.519586   8.019860   9.739424   6.650366   8.706429
    28  H    7.918026   9.969361  11.549443   8.621816  10.725826
    29  H    5.358405   6.065273   7.924799   4.692974   6.664893
    30  H    7.390463   8.495579  10.338597   7.113108   9.080769
    31  H    4.588019   3.795301   5.325906   3.063389   4.222823
    32  O    5.381757   3.855964   5.374727   3.364779   4.024825
    33  O    6.365245   5.186453   6.462823   4.771711   5.322645
    34  H    6.781675   5.744350   7.205974   5.143493   5.882084
                   11         12         13         14         15
    11  H    0.000000
    12  C    2.696397   0.000000
    13  C    4.017565   1.534640   0.000000
    14  C    5.041637   2.575789   1.516393   0.000000
    15  H    4.639582   2.157784   1.091870   2.140922   0.000000
    16  H    4.025510   2.128888   1.093241   2.153094   1.739199
    17  O    3.427084   1.461072   2.463758   2.974406   2.778367
    18  H    2.311299   1.086367   2.181859   2.819031   3.070940
    19  H    4.117180   2.107526   2.795548   3.345023   2.725225
    20  O    3.068661   2.382777   3.719164   4.176609   4.149570
    21  C    6.346717   3.747194   2.520732   1.395636   2.590121
    22  C    7.418661   4.909365   3.808109   2.424431   3.977009
    23  H    6.677797   4.022412   2.712812   2.149875   2.330913
    24  C    7.418345   5.178315   4.318351   2.802202   4.782894
    25  H    8.408545   5.830038   4.667936   3.403430   4.644361
    26  C    5.048662   3.062024   2.542290   1.396074   3.415846
    27  C    6.340199   4.404806   3.819077   2.419921   4.555622
    28  H    8.404480   6.228714   5.401110   3.884939   5.844608
    29  H    4.273995   2.814348   2.762314   2.158813   3.792772
    30  H    6.650288   5.059688   4.683721   3.396985   5.511648
    31  H    2.972957   3.328781   4.797912   5.513406   5.105484
    32  O    3.132669   4.152316   5.665764   6.404899   6.022695
    33  O    4.568180   5.273012   6.720703   7.304169   6.996828
    34  H    4.781496   5.346638   6.757730   7.155232   7.131039
                   16         17         18         19         20
    16  H    0.000000
    17  O    3.381230   0.000000
    18  H    2.531750   1.953588   0.000000
    19  H    3.783053   0.974158   2.849407   0.000000
    20  O    4.483054   1.431614   2.349528   2.021201   0.000000
    21  C    3.120879   3.888691   4.158799   3.963664   5.185720
    22  C    4.347246   4.884503   5.137849   4.997256   6.040785
    23  H    3.282586   4.172739   4.660811   4.025141   5.567983
    24  C    4.798880   5.133045   5.117251   5.454714   6.054881
    25  H    5.195807   5.733725   6.150530   5.709716   6.927168
    26  C    2.966992   3.367418   2.784921   3.996800   4.197473
    27  C    4.235289   4.476534   4.101232   5.020146   5.212811
    28  H    5.861129   6.105772   6.116293   6.411013   6.945128
    29  H    3.032275   3.272077   2.176960   4.090654   3.805022
    30  H    5.028303   5.104214   4.553662   5.744665   5.599062
    31  H    5.432905   2.646351   3.344453   2.942612   1.478373
    32  O    6.204297   3.620244   4.022033   3.954908   2.369558
    33  O    7.387400   4.424054   5.192757   4.581837   3.131162
    34  H    7.458854   4.419367   5.132308   4.681568   3.047045
                   21         22         23         24         25
    21  C    0.000000
    22  C    1.391087   0.000000
    23  H    1.084629   2.143465   0.000000
    24  C    2.407382   1.389018   3.386412   0.000000
    25  H    2.147735   1.084953   2.463423   2.150154   0.000000
    26  C    2.400520   2.778942   3.385929   2.412221   3.863863
    27  C    2.771499   2.402789   3.856095   1.390844   3.388950
    28  H    3.391424   2.150204   4.282854   1.082759   2.482712
    29  H    3.391158   3.863481   4.293135   3.387213   4.948411
    30  H    3.854838   3.386741   4.939435   2.149790   4.287551
    31  H    6.528456   7.465097   6.793401   7.527886   8.327132
    32  O    7.478832   8.397211   7.772935   8.381483   9.285075
    33  O    8.249514   9.056840   8.535597   9.018665   9.877774
    34  H    8.101350   8.785959   8.492671   8.620989   9.621216
                   26         27         28         29         30
    26  C    0.000000
    27  C    1.390221   0.000000
    28  H    3.392215   2.147631   0.000000
    29  H    1.084731   2.137903   4.276452   0.000000
    30  H    2.142838   1.083379   2.476135   2.449990   0.000000
    31  H    5.601144   6.665503   8.423502   5.110801   7.012179
    32  O    6.387856   7.438320   9.255522   5.784430   7.688202
    33  O    7.258642   8.160833   9.810940   6.741808   8.368319
    34  H    6.951831   7.734863   9.346455   6.421319   7.846424
                   31         32         33         34
    31  H    0.000000
    32  O    1.013944   0.000000
    33  O    1.963421   1.444182   0.000000
    34  H    2.262485   1.891496   0.958691   0.000000
 Stoichiometry    C14H16O4
 Framework group  C1[X(C14H16O4)]
 Deg. of freedom    96
 Full point group                 C1      NOp   1
 Largest Abelian subgroup         C1      NOp   1
 Largest concise Abelian subgroup C1      NOp   1
                         Standard orientation:                         
 ---------------------------------------------------------------------
 Center     Atomic      Atomic             Coordinates (Angstroms)
 Number     Number       Type             X           Y           Z
 ---------------------------------------------------------------------
      1          6           0       -2.917165   -2.498857   -0.776084
      2          6           0       -1.650546   -1.925969   -0.743031
      3          6           0       -3.870885   -2.133080    0.167771
      4          1           0       -3.158267   -3.230628   -1.536884
      5          6           0       -1.328949   -0.979332    0.229873
      6          1           0       -0.914558   -2.223814   -1.483200
      7          6           0       -3.558610   -1.190050    1.138659
      8          1           0       -4.857529   -2.581854    0.142240
      9          6           0       -2.293121   -0.613656    1.167093
     10          1           0       -4.302991   -0.890460    1.868125
     11          1           0       -2.063665    0.140097    1.906337
     12          6           0        0.029980   -0.315415    0.269354
     13          6           0        1.223765   -1.258662    0.068646
     14          6           0        2.585175   -0.591453    0.097684
     15          1           0        1.105713   -1.794984   -0.875071
     16          1           0        1.162432   -2.022641    0.848230
     17          8           0        0.067519    0.776239   -0.701014
     18          1           0        0.128106    0.263783    1.183190
     19          1           0       -0.026131    0.561013   -1.646472
     20          8           0       -0.777093    1.856020   -0.288435
     21          6           0        3.551940   -0.944222   -0.845035
     22          6           0        4.815674   -0.363117   -0.824597
     23          1           0        3.316405   -1.681197   -1.605173
     24          6           0        5.127579    0.586129    0.140296
     25          1           0        5.553168   -0.649752   -1.566935
     26          6           0        2.908393    0.366876    1.060054
     27          6           0        4.170245    0.949966    1.081349
     28          1           0        6.106501    1.048497    0.157487
     29          1           0        2.175693    0.672457    1.799250
     30          1           0        4.401926    1.694801    1.833184
     31          1           0       -2.242368    2.027913   -0.383355
     32          8           0       -3.037928    2.474803    0.058750
     33          8           0       -3.314155    3.627968   -0.765611
     34          1           0       -2.652029    4.251588   -0.462667
 ---------------------------------------------------------------------
 Rotational constants (GHZ):           0.6055071           0.2146727           0.1737624
 Standard basis: 6-311+G(2df,2p) (5D, 7F)
 There are   846 symmetry adapted cartesian basis functions of A   symmetry.
 There are   756 symmetry adapted basis functions of A   symmetry.
   756 basis functions,  1112 primitive gaussians,   846 cartesian basis functions
    66 alpha electrons       66 beta electrons
       nuclear repulsion energy      1260.7492170665 Hartrees.
 NAtoms=   34 NActive=   34 NUniq=   34 SFac= 1.00D+00 NAtFMM=   60 NAOKFM=F Big=F
 Integral buffers will be    131072 words long.
 Raffenetti 2 integral format.
 Two-electron integral symmetry is turned on.
 One-electron integrals computed using PRISM.
 NBasis=   756 RedAO= T EigKep=  1.23D-06  NBF=   756
 NBsUse=   755 1.00D-06 EigRej=  7.96D-07 NBFU=   755
 Initial guess from the checkpoint file:  "/scratch/dinius.ab/QMscratch/Gau-48316.chk"
 B after Tr=    -0.000000   -0.000000   -0.000000
         Rot=    1.000000   -0.000001   -0.000001   -0.000002 Ang=  -0.00 deg.
 Requested convergence on RMS density matrix=1.00D-08 within 128 cycles.
 Requested convergence on MAX density matrix=1.00D-06.
 Requested convergence on             energy=1.00D-06.
 No special actions if energy rises.
 SCF Done:  E(RM062X) =  -843.687611276     A.U. after    6 cycles
            NFock=  6  Conv=0.41D-08     -V/T= 2.0039
 Calling FoFJK, ICntrl=      2127 FMM=F ISym2X=0 I1Cent= 0 IOpClX= 0 NMat=1 NMatS=1 NMatT=0.
 ***** Axes restored to original set *****
 -------------------------------------------------------------------
 Center     Atomic                   Forces (Hartrees/Bohr)
 Number     Number              X              Y              Z
 -------------------------------------------------------------------
      1        6           0.001577351    0.000054912   -0.000617043
      2        6          -0.000682032   -0.000261819    0.000185892
      3        6           0.000103615    0.000084787   -0.000065558
      4        1           0.001150255   -0.000671527   -0.000757231
      5        6           0.000143242   -0.000126745   -0.002630336
      6        1          -0.000745353   -0.001334317    0.000188030
      7        6           0.001437896    0.000548446   -0.000157569
      8        1           0.002117702    0.000668492   -0.000770848
      9        6          -0.002109704    0.000973697    0.002237371
     10        1           0.000639718    0.002267401    0.000220007
     11        1           0.000855043   -0.000443118    0.000069269
     12        6          -0.010483604   -0.000110653   -0.001771747
     13        6           0.003646475   -0.001007606    0.007016138
     14        6           0.001750647   -0.000912013    0.001680522
     15        1           0.000649876    0.000429315   -0.000621126
     16        1          -0.000248270   -0.002863772    0.001445415
     17        8           0.014356730    0.014079108   -0.007642164
     18        1          -0.001906524    0.000569024   -0.001567465
     19        1          -0.006692205   -0.007871012   -0.001578973
     20        8           0.006662143    0.010416331   -0.002096981
     21        6           0.000493855   -0.001855837   -0.000441763
     22        6          -0.000590061   -0.000424423   -0.000189711
     23        1           0.000601134   -0.000991468   -0.000664906
     24        6          -0.000410540   -0.000479763    0.000184527
     25        1          -0.000400708   -0.002327490   -0.000105050
     26        6           0.000781875    0.002001208   -0.000073073
     27        6          -0.001391770    0.000026796    0.000717936
     28        1          -0.001424194   -0.000119448    0.000478685
     29        1          -0.000197864    0.001610227   -0.000021032
     30        1          -0.001204903    0.001166336    0.000813404
     31        1          -0.003066411   -0.018473471    0.004505869
     32        8           0.002760212   -0.000315691    0.014013471
     33        8          -0.011725798    0.007251812   -0.009218523
     34        1           0.003552168   -0.001557719   -0.002765434
 -------------------------------------------------------------------
 Cartesian Forces:  Max     0.018473471 RMS     0.004282723

 GradGradGradGradGradGradGradGradGradGradGradGradGradGradGradGradGradGrad
 Berny optimization.
 Using GEDIIS/GDIIS optimizer.
 FormGI is forming the generalized inverse of G from B-inverse, IUseBI=4.
 Internal  Forces:  Max     0.015636546 RMS     0.002731712
 Search for a local minimum.
 Step number  12 out of a maximum of  204
 All quantities printed in internal units (Hartrees-Bohrs-Radians)
 Mixed Optimization -- RFO/linear search
 Update second derivatives using D2CorX and points   11   12
 ITU=  0  0  1  0  0 -1  1  1  0  0  1  0
 Use linear search instead of GDIIS.
 Linear search step of   1.026 exceeds DXMaxT=   0.714 but not scaled.
 Quartic linear search produced a step of  2.00000.
 Iteration  1 RMS(Cart)=  0.00021184 RMS(Int)=  0.06364563
 Iteration  2 RMS(Cart)=  0.00014951 RMS(Int)=  0.05278775
 Linear angle in Tors.
 Error termination via Lnk1e in /shared/centos7/gaussian/g16/l103.exe at Wed Nov  7 11:44:56 2018.
 Job cpu time:       0 days 22 hours 47 minutes 36.5 seconds.
 Elapsed time:       0 days 22 hours 47 minutes 59.0 seconds.
 File lengths (MBytes):  RWF=    576 Int=      0 D2E=      0 Chk=     64 Scr=     32
