 Entering Gaussian System, Link 0=g16
 Input=rxn935.com
 Output=rxn935.log
 Initial command:
 /shared/centos7/gaussian/g16/l1.exe "/scratch/dinius.ab/QMscratch/Gau-18917.inp" -scrdir="/scratch/dinius.ab/QMscratch/"
 Entering Link 1 = /shared/centos7/gaussian/g16/l1.exe PID=     18918.
  
 Copyright (c) 1988,1990,1992,1993,1995,1998,2003,2009,2016,
            Gaussian, Inc.  All Rights Reserved.
  
 This is part of the Gaussian(R) 16 program.  It is based on
 the Gaussian(R) 09 system (copyright 2009, Gaussian, Inc.),
 the Gaussian(R) 03 system (copyright 2003, Gaussian, Inc.),
 the Gaussian(R) 98 system (copyright 1998, Gaussian, Inc.),
 the Gaussian(R) 94 system (copyright 1995, Gaussian, Inc.),
 the Gaussian 92(TM) system (copyright 1992, Gaussian, Inc.),
 the Gaussian 90(TM) system (copyright 1990, Gaussian, Inc.),
 the Gaussian 88(TM) system (copyright 1988, Gaussian, Inc.),
 the Gaussian 86(TM) system (copyright 1986, Carnegie Mellon
 University), and the Gaussian 82(TM) system (copyright 1983,
 Carnegie Mellon University). Gaussian is a federally registered
 trademark of Gaussian, Inc.
  
 This software contains proprietary and confidential information,
 including trade secrets, belonging to Gaussian, Inc.
  
 This software is provided under written license and may be
 used, copied, transmitted, or stored only in accord with that
 written license.
  
 The following legend is applicable only to US Government
 contracts under FAR:
  
                    RESTRICTED RIGHTS LEGEND
  
 Use, reproduction and disclosure by the US Government is
 subject to restrictions as set forth in subparagraphs (a)
 and (c) of the Commercial Computer Software - Restricted
 Rights clause in FAR 52.227-19.
  
 Gaussian, Inc.
 340 Quinnipiac St., Bldg. 40, Wallingford CT 06492
  
  
 ---------------------------------------------------------------
 Warning -- This program may not be used in any manner that
 competes with the business of Gaussian, Inc. or will provide
 assistance to any competitor of Gaussian, Inc.  The licensee
 of this program is prohibited from giving any competitor of
 Gaussian, Inc. access to this program.  By using this program,
 the user acknowledges that Gaussian, Inc. is engaged in the
 business of creating and licensing software in the field of
 computational chemistry and represents and warrants to the
 licensee that it is not a competitor of Gaussian, Inc. and that
 it will not use this program in any manner prohibited above.
 ---------------------------------------------------------------
  

 Cite this work as:
 Gaussian 16, Revision A.03,
 M. J. Frisch, G. W. Trucks, H. B. Schlegel, G. E. Scuseria, 
 M. A. Robb, J. R. Cheeseman, G. Scalmani, V. Barone, 
 G. A. Petersson, H. Nakatsuji, X. Li, M. Caricato, A. V. Marenich, 
 J. Bloino, B. G. Janesko, R. Gomperts, B. Mennucci, H. P. Hratchian, 
 J. V. Ortiz, A. F. Izmaylov, J. L. Sonnenberg, D. Williams-Young, 
 F. Ding, F. Lipparini, F. Egidi, J. Goings, B. Peng, A. Petrone, 
 T. Henderson, D. Ranasinghe, V. G. Zakrzewski, J. Gao, N. Rega, 
 G. Zheng, W. Liang, M. Hada, M. Ehara, K. Toyota, R. Fukuda, 
 J. Hasegawa, M. Ishida, T. Nakajima, Y. Honda, O. Kitao, H. Nakai, 
 T. Vreven, K. Throssell, J. A. Montgomery, Jr., J. E. Peralta, 
 F. Ogliaro, M. J. Bearpark, J. J. Heyd, E. N. Brothers, K. N. Kudin, 
 V. N. Staroverov, T. A. Keith, R. Kobayashi, J. Normand, 
 K. Raghavachari, A. P. Rendell, J. C. Burant, S. S. Iyengar, 
 J. Tomasi, M. Cossi, J. M. Millam, M. Klene, C. Adamo, R. Cammi, 
 J. W. Ochterski, R. L. Martin, K. Morokuma, O. Farkas, 
 J. B. Foresman, and D. J. Fox, Gaussian, Inc., Wallingford CT, 2016.
 
 ******************************************
 Gaussian 16:  EM64L-G16RevA.03 25-Dec-2016
                 9-Nov-2018 
 ******************************************
 ----------------------------------------------------------------------
 #m062x/6-311+g(2df,2p) Opt=(ModRedun,Loose,maxcycle=1000) Int(Grid=SG1
 ) freq
 ----------------------------------------------------------------------
 1/6=1000,7=-1,18=120,19=15,26=2,38=1/1,3;
 2/9=110,12=2,17=6,18=5,40=1/2;
 3/5=4,6=6,7=214,11=2,25=1,30=1,71=1,74=-55,75=1/1,2,3;
 4//1;
 5/5=2,38=5/2;
 6/7=2,8=2,9=2,10=2,28=1/1;
 7//1,2,3,16;
 1/6=1000,7=-1,18=20,19=15,26=2/3(2);
 2/9=110/2;
 99//99;
 2/9=110/2;
 3/5=4,6=6,7=214,11=2,25=1,30=1,71=1,74=-55,75=1/1,2,3;
 4/5=5,16=3,69=1/1;
 5/5=2,38=5/2;
 7//1,2,3,16;
 1/6=1000,7=-1,18=20,19=15,26=2/3(-5);
 2/9=110/2;
 6/7=2,8=2,9=2,10=2,19=2,28=1/1;
 99/9=1/99;
 -----
 Title
 -----
 Symbolic Z-matrix:
 Charge =  0 Multiplicity = 2
 C                    -5.29004  -1.22671   1.72342 
 C                    -3.92499  -0.97829   1.59303 
 C                    -5.80502  -2.47958   1.40086 
 H                    -5.95325  -0.44045   2.07615 
 C                    -3.06448  -1.97706   1.12582 
 H                    -3.53494   0.00253   1.85234 
 C                    -4.95217  -3.48549   0.95117 
 H                    -6.87029  -2.67291   1.50222 
 C                    -3.5876   -3.23414   0.81253 
 H                    -5.35273  -4.4657    0.70478 
 H                    -2.9326   -4.02535   0.45546 
 C                    -1.57619  -1.69745   0.93153 
 C                    -1.33591  -0.51837  -0.04068 
 C                     0.12871  -0.28059  -0.39161 
 H                    -1.75276   0.39171   0.39701 
 H                    -1.88951  -0.70092  -0.96435 
 O                    -0.97177  -1.3689    2.20509 
 H                    -1.08169  -2.58717   0.5331 
 O                    -0.81191  -2.5757    3.00805 
 C                     0.67519   1.00025  -0.27223 
 C                     2.00007   1.23944  -0.63293 
 H                     0.06668   1.82413   0.09385 
 C                     2.79125   0.19792  -1.11183 
 H                     2.41472   2.24064  -0.54506 
 C                     0.92715  -1.31901  -0.88119 
 C                     2.25468  -1.08142  -1.23311 
 H                     3.82421   0.38485  -1.3952 
 H                     0.51895  -2.31921  -0.99886 
 H                     2.87     -1.89457  -1.61042 
 H                     0.14614  -2.7258    2.90088 
 
 The following ModRedundant input section has been read:
 

 GradGradGradGradGradGradGradGradGradGradGradGradGradGradGradGradGradGrad
 Berny optimization.
 Initialization pass.
                           ----------------------------
                           !    Initial Parameters    !
                           ! (Angstroms and Degrees)  !
 --------------------------                            --------------------------
 ! Name  Definition              Value          Derivative Info.                !
 --------------------------------------------------------------------------------
 ! R1    R(1,2)                  1.3936         estimate D2E/DX2                !
 ! R2    R(1,3)                  1.3925         estimate D2E/DX2                !
 ! R3    R(1,4)                  1.0874         estimate D2E/DX2                !
 ! R4    R(2,5)                  1.3987         estimate D2E/DX2                !
 ! R5    R(2,6)                  1.0869         estimate D2E/DX2                !
 ! R6    R(3,7)                  1.3934         estimate D2E/DX2                !
 ! R7    R(3,8)                  1.0874         estimate D2E/DX2                !
 ! R8    R(5,9)                  1.3972         estimate D2E/DX2                !
 ! R9    R(5,12)                 1.5267         estimate D2E/DX2                !
 ! R10   R(7,9)                  1.3944         estimate D2E/DX2                !
 ! R11   R(7,10)                 1.0872         estimate D2E/DX2                !
 ! R12   R(9,11)                 1.0874         estimate D2E/DX2                !
 ! R13   R(12,13)                1.547          estimate D2E/DX2                !
 ! R14   R(12,17)                1.4475         estimate D2E/DX2                !
 ! R15   R(12,18)                1.0931         estimate D2E/DX2                !
 ! R16   R(13,14)                1.5247         estimate D2E/DX2                !
 ! R17   R(13,15)                1.0925         estimate D2E/DX2                !
 ! R18   R(13,16)                1.0922         estimate D2E/DX2                !
 ! R19   R(14,20)                1.3977         estimate D2E/DX2                !
 ! R20   R(14,25)                1.3984         estimate D2E/DX2                !
 ! R21   R(17,19)                1.4583         estimate D2E/DX2                !
 ! R22   R(19,30)                0.9756         estimate D2E/DX2                !
 ! R23   R(20,21)                1.3938         estimate D2E/DX2                !
 ! R24   R(20,22)                1.0877         estimate D2E/DX2                !
 ! R25   R(21,23)                1.3929         estimate D2E/DX2                !
 ! R26   R(21,24)                1.0872         estimate D2E/DX2                !
 ! R27   R(23,26)                1.3926         estimate D2E/DX2                !
 ! R28   R(23,27)                1.0873         estimate D2E/DX2                !
 ! R29   R(25,26)                1.3938         estimate D2E/DX2                !
 ! R30   R(25,28)                1.0867         estimate D2E/DX2                !
 ! R31   R(26,29)                1.0873         estimate D2E/DX2                !
 ! A1    A(2,1,3)              120.0648         estimate D2E/DX2                !
 ! A2    A(2,1,4)              119.9251         estimate D2E/DX2                !
 ! A3    A(3,1,4)              120.01           estimate D2E/DX2                !
 ! A4    A(1,2,5)              120.4373         estimate D2E/DX2                !
 ! A5    A(1,2,6)              119.3438         estimate D2E/DX2                !
 ! A6    A(5,2,6)              120.2178         estimate D2E/DX2                !
 ! A7    A(1,3,7)              119.8649         estimate D2E/DX2                !
 ! A8    A(1,3,8)              120.0452         estimate D2E/DX2                !
 ! A9    A(7,3,8)              120.0897         estimate D2E/DX2                !
 ! A10   A(2,5,9)              119.146          estimate D2E/DX2                !
 ! A11   A(2,5,12)             120.7616         estimate D2E/DX2                !
 ! A12   A(9,5,12)             120.0815         estimate D2E/DX2                !
 ! A13   A(3,7,9)              120.0618         estimate D2E/DX2                !
 ! A14   A(3,7,10)             119.9027         estimate D2E/DX2                !
 ! A15   A(9,7,10)             120.0351         estimate D2E/DX2                !
 ! A16   A(5,9,7)              120.4166         estimate D2E/DX2                !
 ! A17   A(5,9,11)             120.1817         estimate D2E/DX2                !
 ! A18   A(7,9,11)             119.4015         estimate D2E/DX2                !
 ! A19   A(5,12,13)            111.7756         estimate D2E/DX2                !
 ! A20   A(5,12,17)            109.673          estimate D2E/DX2                !
 ! A21   A(5,12,18)            109.7737         estimate D2E/DX2                !
 ! A22   A(13,12,17)           108.3659         estimate D2E/DX2                !
 ! A23   A(13,12,18)           108.7255         estimate D2E/DX2                !
 ! A24   A(17,12,18)           108.4541         estimate D2E/DX2                !
 ! A25   A(12,13,14)           114.3748         estimate D2E/DX2                !
 ! A26   A(12,13,15)           108.8971         estimate D2E/DX2                !
 ! A27   A(12,13,16)           108.9872         estimate D2E/DX2                !
 ! A28   A(14,13,15)           109.1965         estimate D2E/DX2                !
 ! A29   A(14,13,16)           108.5599         estimate D2E/DX2                !
 ! A30   A(15,13,16)           106.5371         estimate D2E/DX2                !
 ! A31   A(13,14,20)           119.9232         estimate D2E/DX2                !
 ! A32   A(13,14,25)           120.8794         estimate D2E/DX2                !
 ! A33   A(20,14,25)           119.1548         estimate D2E/DX2                !
 ! A34   A(12,17,19)           110.0225         estimate D2E/DX2                !
 ! A35   A(17,19,30)           100.0481         estimate D2E/DX2                !
 ! A36   A(14,20,21)           120.4531         estimate D2E/DX2                !
 ! A37   A(14,20,22)           120.2751         estimate D2E/DX2                !
 ! A38   A(21,20,22)           119.2687         estimate D2E/DX2                !
 ! A39   A(20,21,23)           120.0396         estimate D2E/DX2                !
 ! A40   A(20,21,24)           119.9768         estimate D2E/DX2                !
 ! A41   A(23,21,24)           119.9829         estimate D2E/DX2                !
 ! A42   A(21,23,26)           119.8693         estimate D2E/DX2                !
 ! A43   A(21,23,27)           120.0451         estimate D2E/DX2                !
 ! A44   A(26,23,27)           120.0849         estimate D2E/DX2                !
 ! A45   A(14,25,26)           120.374          estimate D2E/DX2                !
 ! A46   A(14,25,28)           120.4586         estimate D2E/DX2                !
 ! A47   A(26,25,28)           119.166          estimate D2E/DX2                !
 ! A48   A(23,26,25)           120.1057         estimate D2E/DX2                !
 ! A49   A(23,26,29)           119.9483         estimate D2E/DX2                !
 ! A50   A(25,26,29)           119.9442         estimate D2E/DX2                !
 ! D1    D(3,1,2,5)              0.648          estimate D2E/DX2                !
 ! D2    D(3,1,2,6)           -179.728          estimate D2E/DX2                !
 ! D3    D(4,1,2,5)           -179.2667         estimate D2E/DX2                !
 ! D4    D(4,1,2,6)              0.3573         estimate D2E/DX2                !
 ! D5    D(2,1,3,7)              0.1857         estimate D2E/DX2                !
 ! D6    D(2,1,3,8)           -179.9675         estimate D2E/DX2                !
 ! D7    D(4,1,3,7)           -179.8997         estimate D2E/DX2                !
 ! D8    D(4,1,3,8)             -0.0529         estimate D2E/DX2                !
 ! D9    D(1,2,5,9)             -1.0543         estimate D2E/DX2                !
 ! D10   D(1,2,5,12)           177.7433         estimate D2E/DX2                !
 ! D11   D(6,2,5,9)            179.325          estimate D2E/DX2                !
 ! D12   D(6,2,5,12)            -1.8775         estimate D2E/DX2                !
 ! D13   D(1,3,7,9)             -0.6            estimate D2E/DX2                !
 ! D14   D(1,3,7,10)           179.6374         estimate D2E/DX2                !
 ! D15   D(8,3,7,9)            179.5533         estimate D2E/DX2                !
 ! D16   D(8,3,7,10)            -0.2093         estimate D2E/DX2                !
 ! D17   D(2,5,9,7)              0.6382         estimate D2E/DX2                !
 ! D18   D(2,5,9,11)          -179.5141         estimate D2E/DX2                !
 ! D19   D(12,5,9,7)          -178.1677         estimate D2E/DX2                !
 ! D20   D(12,5,9,11)            1.6801         estimate D2E/DX2                !
 ! D21   D(2,5,12,13)          -57.5208         estimate D2E/DX2                !
 ! D22   D(2,5,12,17)           62.6877         estimate D2E/DX2                !
 ! D23   D(2,5,12,18)         -178.2499         estimate D2E/DX2                !
 ! D24   D(9,5,12,13)          121.2655         estimate D2E/DX2                !
 ! D25   D(9,5,12,17)         -118.5259         estimate D2E/DX2                !
 ! D26   D(9,5,12,18)            0.5364         estimate D2E/DX2                !
 ! D27   D(3,7,9,5)              0.1844         estimate D2E/DX2                !
 ! D28   D(3,7,9,11)          -179.6645         estimate D2E/DX2                !
 ! D29   D(10,7,9,5)           179.9467         estimate D2E/DX2                !
 ! D30   D(10,7,9,11)            0.0978         estimate D2E/DX2                !
 ! D31   D(5,12,13,14)        -173.9337         estimate D2E/DX2                !
 ! D32   D(5,12,13,15)          63.6102         estimate D2E/DX2                !
 ! D33   D(5,12,13,16)         -52.2353         estimate D2E/DX2                !
 ! D34   D(17,12,13,14)         65.0955         estimate D2E/DX2                !
 ! D35   D(17,12,13,15)        -57.3605         estimate D2E/DX2                !
 ! D36   D(17,12,13,16)       -173.206          estimate D2E/DX2                !
 ! D37   D(18,12,13,14)        -52.5963         estimate D2E/DX2                !
 ! D38   D(18,12,13,15)       -175.0523         estimate D2E/DX2                !
 ! D39   D(18,12,13,16)         69.1022         estimate D2E/DX2                !
 ! D40   D(5,12,17,19)          74.9295         estimate D2E/DX2                !
 ! D41   D(13,12,17,19)       -162.8073         estimate D2E/DX2                !
 ! D42   D(18,12,17,19)        -44.9422         estimate D2E/DX2                !
 ! D43   D(12,13,14,20)       -129.2661         estimate D2E/DX2                !
 ! D44   D(12,13,14,25)         53.1268         estimate D2E/DX2                !
 ! D45   D(15,13,14,20)         -6.9731         estimate D2E/DX2                !
 ! D46   D(15,13,14,25)        175.4197         estimate D2E/DX2                !
 ! D47   D(16,13,14,20)        108.8014         estimate D2E/DX2                !
 ! D48   D(16,13,14,25)        -68.8058         estimate D2E/DX2                !
 ! D49   D(13,14,20,21)       -177.8216         estimate D2E/DX2                !
 ! D50   D(13,14,20,22)          1.5303         estimate D2E/DX2                !
 ! D51   D(25,14,20,21)         -0.1731         estimate D2E/DX2                !
 ! D52   D(25,14,20,22)        179.1788         estimate D2E/DX2                !
 ! D53   D(13,14,25,26)        178.2415         estimate D2E/DX2                !
 ! D54   D(13,14,25,28)         -1.3159         estimate D2E/DX2                !
 ! D55   D(20,14,25,26)          0.6162         estimate D2E/DX2                !
 ! D56   D(20,14,25,28)       -178.9412         estimate D2E/DX2                !
 ! D57   D(12,17,19,30)        103.6758         estimate D2E/DX2                !
 ! D58   D(14,20,21,23)         -0.2284         estimate D2E/DX2                !
 ! D59   D(14,20,21,24)        179.4685         estimate D2E/DX2                !
 ! D60   D(22,20,21,23)       -179.5868         estimate D2E/DX2                !
 ! D61   D(22,20,21,24)          0.1101         estimate D2E/DX2                !
 ! D62   D(20,21,23,26)          0.1897         estimate D2E/DX2                !
 ! D63   D(20,21,23,27)        179.8725         estimate D2E/DX2                !
 ! D64   D(24,21,23,26)       -179.5072         estimate D2E/DX2                !
 ! D65   D(24,21,23,27)          0.1756         estimate D2E/DX2                !
 ! D66   D(21,23,26,25)          0.2523         estimate D2E/DX2                !
 ! D67   D(21,23,26,29)        179.7641         estimate D2E/DX2                !
 ! D68   D(27,23,26,25)       -179.4304         estimate D2E/DX2                !
 ! D69   D(27,23,26,29)          0.0814         estimate D2E/DX2                !
 ! D70   D(14,25,26,23)         -0.6594         estimate D2E/DX2                !
 ! D71   D(14,25,26,29)        179.8288         estimate D2E/DX2                !
 ! D72   D(28,25,26,23)        178.9036         estimate D2E/DX2                !
 ! D73   D(28,25,26,29)         -0.6082         estimate D2E/DX2                !
 --------------------------------------------------------------------------------
 Trust Radius=3.00D-01 FncErr=1.00D-05 GrdErr=1.00D-04 EigMax=2.50D+02 EigMin=1.00D-04
 Number of steps in this run=    180 maximum allowed number of steps=    180.
 GradGradGradGradGradGradGradGradGradGradGradGradGradGradGradGradGradGrad

                          Input orientation:                          
 ---------------------------------------------------------------------
 Center     Atomic      Atomic             Coordinates (Angstroms)
 Number     Number       Type             X           Y           Z
 ---------------------------------------------------------------------
      1          6           0       -5.290040   -1.226710    1.723420
      2          6           0       -3.924990   -0.978290    1.593030
      3          6           0       -5.805020   -2.479580    1.400860
      4          1           0       -5.953250   -0.440450    2.076150
      5          6           0       -3.064480   -1.977060    1.125820
      6          1           0       -3.534940    0.002530    1.852340
      7          6           0       -4.952170   -3.485490    0.951170
      8          1           0       -6.870290   -2.672910    1.502220
      9          6           0       -3.587600   -3.234140    0.812530
     10          1           0       -5.352730   -4.465700    0.704780
     11          1           0       -2.932600   -4.025350    0.455460
     12          6           0       -1.576190   -1.697450    0.931530
     13          6           0       -1.335910   -0.518370   -0.040680
     14          6           0        0.128710   -0.280590   -0.391610
     15          1           0       -1.752760    0.391710    0.397010
     16          1           0       -1.889510   -0.700920   -0.964350
     17          8           0       -0.971770   -1.368900    2.205090
     18          1           0       -1.081690   -2.587170    0.533100
     19          8           0       -0.811910   -2.575700    3.008050
     20          6           0        0.675190    1.000250   -0.272230
     21          6           0        2.000070    1.239440   -0.632930
     22          1           0        0.066680    1.824130    0.093850
     23          6           0        2.791250    0.197920   -1.111830
     24          1           0        2.414720    2.240640   -0.545060
     25          6           0        0.927150   -1.319010   -0.881190
     26          6           0        2.254680   -1.081420   -1.233110
     27          1           0        3.824210    0.384850   -1.395200
     28          1           0        0.518950   -2.319210   -0.998860
     29          1           0        2.870000   -1.894570   -1.610420
     30          1           0        0.146140   -2.725800    2.900880
 ---------------------------------------------------------------------
                    Distance matrix (angstroms):
                    1          2          3          4          5
     1  C    0.000000
     2  C    1.393584   0.000000
     3  C    1.392456   2.413569   0.000000
     4  H    1.087415   2.153257   2.153147   0.000000
     5  C    2.423483   1.398679   2.799774   3.407241   0.000000
     6  H    2.146632   1.086917   3.393813   2.468713   2.160542
     7  C    2.410936   2.784445   1.393352   3.397059   2.422651
     8  H    2.153512   3.399232   1.087405   2.480773   3.887168
     9  C    2.785282   2.410782   2.415045   3.872691   1.397160
    10  H    3.395970   3.871622   2.152618   4.294638   3.406860
    11  H    3.872678   3.400511   3.396172   4.960088   2.159228
    12  C    3.826404   2.543941   4.326084   4.695621   1.526741
    13  C    4.387361   3.095783   5.088942   5.080046   2.544888
    14  C    5.893331   4.567063   6.577055   6.565488   3.921360
    15  H    4.109866   2.833010   5.066837   4.599578   2.804076
    16  H    4.366253   3.280290   4.908062   5.081975   2.716229
    17  O    4.347376   3.041168   5.024012   5.068904   2.431896
    18  H    4.580166   3.434574   4.803585   5.542699   2.157547
    19  O    4.850123   3.774290   5.246279   5.644564   2.995869
    20  C    6.672776   5.343732   7.543313   7.178212   4.980366
    21  C    8.048601   6.706680   8.881826   8.568340   6.252099
    22  H    6.376329   5.102404   7.396422   6.730334   5.031716
    23  C    8.681904   7.335368   9.347645   9.329363   6.635299
    24  H    8.748248   7.424612   9.676322   9.169619   7.113541
    25  C    6.741362   5.457208   7.202554   7.540400   4.515997
    26  C    8.104627   6.796030   8.593685   8.873114   5.887290
    27  H    9.766907   8.416518  10.428086  10.408175   7.706375
    28  H    6.507590   5.316443   6.765868   7.407753   4.179988
    29  H    8.840067   7.567929   9.201414   9.672384   6.535432
    30  H    5.760706   4.619347   6.142230   6.565483   3.744266
                    6          7          8          9         10
     6  H    0.000000
     7  C    3.871296   0.000000
     8  H    4.290119   2.154792   0.000000
     9  C    3.400002   1.394435   3.400986   0.000000
    10  H    4.958461   1.087184   2.480523   2.155002   0.000000
    11  H    4.305567   2.148451   4.293041   1.087445   2.472468
    12  C    2.752185   3.820303   5.413382   2.534038   4.687950
    13  C    2.947981   4.781726   6.136118   3.629529   5.680842
    14  C    4.305555   6.155468   7.635168   4.897384   6.983080
    15  H    2.333584   5.057272   6.066506   4.084860   6.053837
    16  H    3.337068   4.561023   5.897532   3.529591   5.380842
    17  O    2.928326   4.679300   6.081694   3.501558   5.570809
    18  H    3.803337   3.995294   5.869790   2.603120   4.669061
    19  O    3.924007   4.711712   6.243472   3.599765   5.431040
    20  C    4.820211   7.299709   8.577590   6.105583   8.195546
    21  C    6.192160   8.553828   9.927166   7.302351   9.402221
    22  H    4.402520   7.356352   8.386205   6.281430   8.324975
    23  C    6.988931   8.819526  10.412506   7.494793   9.558966
    24  H    6.793756   9.449780  10.702604   8.236754  10.337813
    25  C    5.397120   6.528214   8.265214   5.188389   7.200962
    26  C    6.649410   7.905019   9.658154   6.553708   8.548769
    27  H    8.052936   9.874707  11.494228   8.538506  10.590278
    28  H    5.473010   5.924186   7.809057   4.580610   6.479694
    29  H    7.524158   8.383264  10.255125   7.026075   8.920995
    30  H    4.700380   5.511013   7.154672   4.308182   6.171522
                   11         12         13         14         15
    11  H    0.000000
    12  C    2.735984   0.000000
    13  C    3.885162   1.546983   0.000000
    14  C    4.910435   2.581642   1.524730   0.000000
    15  H    4.572292   2.163672   1.092512   2.147985   0.000000
    16  H    3.762410   2.164625   1.092229   2.139608   1.750955
    17  O    3.736681   1.447489   2.428885   3.022966   2.641751
    18  H    2.345263   1.093105   2.161894   2.764140   3.056564
    19  O    3.621398   2.380626   3.715096   4.208323   4.063035
    20  C    6.229152   3.714207   2.530681   1.397656   2.590974
    21  C    7.296152   4.884925   3.816991   2.422956   3.982858
    22  H    6.583529   3.975205   2.733617   2.160871   2.335400
    23  C    7.283877   5.180954   4.323642   2.799430   4.791887
    24  H    8.298042   5.797951   4.683349   3.406756   4.655527
    25  C    4.899855   3.113821   2.543408   1.398396   3.426700
    26  C    6.198860   4.443053   3.825082   2.422643   4.570227
    27  H    8.278242   6.238106   5.410857   3.886737   5.857871
    28  H    4.115721   2.915922   2.757107   2.162640   3.802395
    29  H    6.517534   5.125326   4.695497   3.406626   5.534145
    30  H    4.140960   2.811097   3.965097   4.101201   4.426517
                   16         17         18         19         20
    16  H    0.000000
    17  O    3.366570   0.000000
    18  H    2.540250   2.071670   0.000000
    19  O    4.522829   1.458309   2.489637   0.000000
    20  C    3.154472   3.802955   4.074895   5.075344   0.000000
    21  C    4.359320   4.867199   5.049734   5.976559   1.393780
    22  H    3.364869   3.966252   4.579439   5.350045   1.087694
    23  C    4.768561   5.255207   5.046007   6.135890   2.413788
    24  H    5.230198   5.662192   6.057645   6.799475   2.153826
    25  C    2.884879   3.624019   2.764758   4.441823   2.411075
    26  C    4.170291   4.723753   4.064252   5.442820   2.784139
    27  H    5.831906   6.248132   6.051372   7.046068   3.399427
    28  H    2.901850   3.659321   2.231760   4.229929   3.401649
    29  H    4.949257   5.440004   4.548651   5.945642   3.871424
    30  H    4.814978   1.890773   2.670799   0.975641   4.922598
                   21         22         23         24         25
    21  C    0.000000
    22  H    2.146641   0.000000
    23  C    1.392866   3.394334   0.000000
    24  H    1.087225   2.468801   2.153069   0.000000
    25  C    2.785401   3.401535   2.414361   3.872590   0.000000
    26  C    2.410691   3.871742   1.392597   3.396337   1.393784
    27  H    2.153803   4.290435   1.087312   2.480596   3.400044
    28  H    3.871900   4.308808   3.392942   4.959043   1.086680
    29  H    3.396216   4.959019   2.152512   4.294442   2.153535
    30  H    5.625655   5.346737   5.625530   6.456507   4.110120
                   26         27         28         29         30
    26  C    0.000000
    27  H    2.153984   0.000000
    28  H    2.144704   4.288796   0.000000
    29  H    1.087288   2.480442   2.466123   0.000000
    30  H    4.923393   6.454506   3.938563   5.334996   0.000000
 Stoichiometry    C14H14O2(2)
 Framework group  C1[X(C14H14O2)]
 Deg. of freedom    84
 Full point group                 C1      NOp   1
 Largest Abelian subgroup         C1      NOp   1
 Largest concise Abelian subgroup C1      NOp   1
                         Standard orientation:                         
 ---------------------------------------------------------------------
 Center     Atomic      Atomic             Coordinates (Angstroms)
 Number     Number       Type             X           Y           Z
 ---------------------------------------------------------------------
      1          6           0        3.801229   -1.351217    0.404422
      2          6           0        2.462016   -1.018801    0.599574
      3          6           0        4.582645   -0.609652   -0.477849
      4          1           0        4.235335   -2.191532    0.940978
      5          6           0        1.888648    0.050371   -0.096433
      6          1           0        1.864028   -1.602825    1.294351
      7          6           0        4.023862    0.467775   -1.162205
      8          1           0        5.627452   -0.869642   -0.630280
      9          6           0        2.681567    0.794922   -0.973347
     10          1           0        4.634959    1.050823   -1.846736
     11          1           0        2.255110    1.634567   -1.517100
     12          6           0        0.409630    0.389075    0.073046
     13          6           0       -0.498484   -0.812039   -0.281654
     14          6           0       -1.990278   -0.496933   -0.273811
     15          1           0       -0.299448   -1.625448    0.420010
     16          1           0       -0.226649   -1.182659   -1.272467
     17          8           0        0.150479    0.766947    1.446100
     18          1           0        0.146601    1.230698   -0.572993
     19          8           0        0.659755    2.109828    1.699032
     20          6           0       -2.871327   -1.312245    0.442053
     21          6           0       -4.242129   -1.061158    0.420112
     22          1           0       -2.494509   -2.156899    1.014455
     23          6           0       -4.742946    0.010965   -0.314605
     24          1           0       -4.921340   -1.705524    0.972854
     25          6           0       -2.501872    0.572329   -1.015743
     26          6           0       -3.871809    0.828650   -1.030033
     27          1           0       -5.812515    0.205682   -0.333459
     28          1           0       -1.837860    1.209292   -1.593878
     29          1           0       -4.261738    1.663606   -1.607092
     30          1           0       -0.175808    2.613427    1.689148
 ---------------------------------------------------------------------
 Rotational constants (GHZ):           1.2792431           0.2458456           0.2388744
 Standard basis: 6-311+G(2df,2p) (5D, 7F)
 The combination of multiplicity 2 and   114 electrons is impossible.
 Error termination via Lnk1e in /shared/centos7/gaussian/g16/l301.exe at Fri Nov  9 10:39:19 2018.
 Job cpu time:       0 days  0 hours  0 minutes  0.6 seconds.
 Elapsed time:       0 days  0 hours  0 minutes  2.3 seconds.
 File lengths (MBytes):  RWF=    272 Int=      0 D2E=      0 Chk=     32 Scr=     32
