 Entering Gaussian System, Link 0=g16
 Input=rxn927.com
 Output=rxn927.log
 Initial command:
 /shared/centos7/gaussian/g16/l1.exe "/scratch/dinius.ab/QMscratch/Gau-21206.inp" -scrdir="/scratch/dinius.ab/QMscratch/"
 Entering Link 1 = /shared/centos7/gaussian/g16/l1.exe PID=     21207.
  
 Copyright (c) 1988,1990,1992,1993,1995,1998,2003,2009,2016,
            Gaussian, Inc.  All Rights Reserved.
  
 This is part of the Gaussian(R) 16 program.  It is based on
 the Gaussian(R) 09 system (copyright 2009, Gaussian, Inc.),
 the Gaussian(R) 03 system (copyright 2003, Gaussian, Inc.),
 the Gaussian(R) 98 system (copyright 1998, Gaussian, Inc.),
 the Gaussian(R) 94 system (copyright 1995, Gaussian, Inc.),
 the Gaussian 92(TM) system (copyright 1992, Gaussian, Inc.),
 the Gaussian 90(TM) system (copyright 1990, Gaussian, Inc.),
 the Gaussian 88(TM) system (copyright 1988, Gaussian, Inc.),
 the Gaussian 86(TM) system (copyright 1986, Carnegie Mellon
 University), and the Gaussian 82(TM) system (copyright 1983,
 Carnegie Mellon University). Gaussian is a federally registered
 trademark of Gaussian, Inc.
  
 This software contains proprietary and confidential information,
 including trade secrets, belonging to Gaussian, Inc.
  
 This software is provided under written license and may be
 used, copied, transmitted, or stored only in accord with that
 written license.
  
 The following legend is applicable only to US Government
 contracts under FAR:
  
                    RESTRICTED RIGHTS LEGEND
  
 Use, reproduction and disclosure by the US Government is
 subject to restrictions as set forth in subparagraphs (a)
 and (c) of the Commercial Computer Software - Restricted
 Rights clause in FAR 52.227-19.
  
 Gaussian, Inc.
 340 Quinnipiac St., Bldg. 40, Wallingford CT 06492
  
  
 ---------------------------------------------------------------
 Warning -- This program may not be used in any manner that
 competes with the business of Gaussian, Inc. or will provide
 assistance to any competitor of Gaussian, Inc.  The licensee
 of this program is prohibited from giving any competitor of
 Gaussian, Inc. access to this program.  By using this program,
 the user acknowledges that Gaussian, Inc. is engaged in the
 business of creating and licensing software in the field of
 computational chemistry and represents and warrants to the
 licensee that it is not a competitor of Gaussian, Inc. and that
 it will not use this program in any manner prohibited above.
 ---------------------------------------------------------------
  

 Cite this work as:
 Gaussian 16, Revision A.03,
 M. J. Frisch, G. W. Trucks, H. B. Schlegel, G. E. Scuseria, 
 M. A. Robb, J. R. Cheeseman, G. Scalmani, V. Barone, 
 G. A. Petersson, H. Nakatsuji, X. Li, M. Caricato, A. V. Marenich, 
 J. Bloino, B. G. Janesko, R. Gomperts, B. Mennucci, H. P. Hratchian, 
 J. V. Ortiz, A. F. Izmaylov, J. L. Sonnenberg, D. Williams-Young, 
 F. Ding, F. Lipparini, F. Egidi, J. Goings, B. Peng, A. Petrone, 
 T. Henderson, D. Ranasinghe, V. G. Zakrzewski, J. Gao, N. Rega, 
 G. Zheng, W. Liang, M. Hada, M. Ehara, K. Toyota, R. Fukuda, 
 J. Hasegawa, M. Ishida, T. Nakajima, Y. Honda, O. Kitao, H. Nakai, 
 T. Vreven, K. Throssell, J. A. Montgomery, Jr., J. E. Peralta, 
 F. Ogliaro, M. J. Bearpark, J. J. Heyd, E. N. Brothers, K. N. Kudin, 
 V. N. Staroverov, T. A. Keith, R. Kobayashi, J. Normand, 
 K. Raghavachari, A. P. Rendell, J. C. Burant, S. S. Iyengar, 
 J. Tomasi, M. Cossi, J. M. Millam, M. Klene, C. Adamo, R. Cammi, 
 J. W. Ochterski, R. L. Martin, K. Morokuma, O. Farkas, 
 J. B. Foresman, and D. J. Fox, Gaussian, Inc., Wallingford CT, 2016.
 
 ******************************************
 Gaussian 16:  EM64L-G16RevA.03 25-Dec-2016
                29-Oct-2018 
 ******************************************
 ----------------------------------------------------------------------
 #m062x/6-311+g(2df,2p) Opt=(ModRedun,Loose,maxcycle=1000) Int(Grid=SG1
 ) freq
 ----------------------------------------------------------------------
 1/6=1000,7=-1,18=120,19=15,26=2,38=1/1,3;
 2/9=110,12=2,17=6,18=5,40=1/2;
 3/5=4,6=6,7=214,11=2,25=1,30=1,71=1,74=-55,75=1/1,2,3;
 4//1;
 5/5=2,38=5/2;
 6/7=2,8=2,9=2,10=2,28=1/1;
 7//1,2,3,16;
 1/6=1000,7=-1,18=20,19=15,26=2/3(2);
 2/9=110/2;
 99//99;
 2/9=110/2;
 3/5=4,6=6,7=214,11=2,25=1,30=1,71=1,74=-55,75=1/1,2,3;
 4/5=5,16=3,69=1/1;
 5/5=2,38=5/2;
 7//1,2,3,16;
 1/6=1000,7=-1,18=20,19=15,26=2/3(-5);
 2/9=110/2;
 6/7=2,8=2,9=2,10=2,19=2,28=1/1;
 99/9=1/99;
 -----
 Title
 -----
 Symbolic Z-matrix:
 Charge =  0 Multiplicity = 2
 C                    -6.96891   0.41586   0.43627 
 C                    -7.55686  -0.78882   0.05648 
 C                    -6.7913   -1.76776  -0.57361 
 C                    -5.43892  -1.54214  -0.82423 
 C                    -5.61624   0.64097   0.18732 
 C                    -4.84434  -0.33684  -0.44403 
 H                    -5.16469   1.58337   0.48892 
 H                    -7.56557   1.18069   0.9275 
 H                    -8.61213  -0.96437   0.25112 
 H                    -7.24969  -2.70783  -0.87079 
 H                    -4.84871  -2.31168  -1.31662 
 C                    -3.36704  -0.09193  -0.70588 
 C                    -2.49545  -0.44556   0.51709 
 H                    -3.21454   0.95796  -0.96828 
 H                    -3.04003  -0.68268  -1.56534 
 C                    -1.02846  -0.1207    0.27102 
 H                    -2.61465  -1.50758   0.76628 
 H                    -2.84886   0.11994   1.38351 
 C                    -0.52226   1.13585   0.61222 
 C                    -0.17935  -1.0684   -0.30636 
 C                     0.81856   1.43964   0.38341 
 H                    -1.1729    1.88521   1.05725 
 C                     1.66141   0.48914  -0.1885 
 C                     1.1617   -0.76473  -0.53348 
 H                     1.81826  -1.50728  -0.98046 
 H                    -0.55926  -2.0499   -0.58176 
 H                     1.20712   2.41917   0.65128 
 H                     2.70766   0.72575  -0.36614 
 O                    -2.77582  -2.55883   1.06363 
 O                    -3.11466  -3.88798   0.5343 
 H                    -4.08076  -3.86557   0.66394 
 
 The following ModRedundant input section has been read:
 

 GradGradGradGradGradGradGradGradGradGradGradGradGradGradGradGradGradGrad
 Berny optimization.
 Initialization pass.
                           ----------------------------
                           !    Initial Parameters    !
                           ! (Angstroms and Degrees)  !
 --------------------------                            --------------------------
 ! Name  Definition              Value          Derivative Info.                !
 --------------------------------------------------------------------------------
 ! R1    R(1,2)                  1.3933         estimate D2E/DX2                !
 ! R2    R(1,5)                  1.3937         estimate D2E/DX2                !
 ! R3    R(1,8)                  1.0873         estimate D2E/DX2                !
 ! R4    R(2,3)                  1.3933         estimate D2E/DX2                !
 ! R5    R(2,9)                  1.0873         estimate D2E/DX2                !
 ! R6    R(3,4)                  1.3938         estimate D2E/DX2                !
 ! R7    R(3,10)                 1.0873         estimate D2E/DX2                !
 ! R8    R(4,6)                  1.3967         estimate D2E/DX2                !
 ! R9    R(4,11)                 1.0877         estimate D2E/DX2                !
 ! R10   R(5,6)                  1.3966         estimate D2E/DX2                !
 ! R11   R(5,7)                  1.0876         estimate D2E/DX2                !
 ! R12   R(6,12)                 1.5202         estimate D2E/DX2                !
 ! R13   R(12,13)                1.5428         estimate D2E/DX2                !
 ! R14   R(12,14)                1.0929         estimate D2E/DX2                !
 ! R15   R(12,15)                1.093          estimate D2E/DX2                !
 ! R16   R(13,16)                1.5225         estimate D2E/DX2                !
 ! R17   R(13,17)                1.0974         estimate D2E/DX2                !
 ! R18   R(13,18)                1.0933         estimate D2E/DX2                !
 ! R19   R(16,19)                1.397          estimate D2E/DX2                !
 ! R20   R(16,20)                1.3973         estimate D2E/DX2                !
 ! R21   R(17,29)                1.1043         estimate D2E/DX2                !
 ! R22   R(19,21)                1.3937         estimate D2E/DX2                !
 ! R23   R(19,22)                1.0876         estimate D2E/DX2                !
 ! R24   R(20,24)                1.3936         estimate D2E/DX2                !
 ! R25   R(20,26)                1.0879         estimate D2E/DX2                !
 ! R26   R(21,23)                1.3932         estimate D2E/DX2                !
 ! R27   R(21,27)                1.0873         estimate D2E/DX2                !
 ! R28   R(23,24)                1.3932         estimate D2E/DX2                !
 ! R29   R(23,28)                1.0873         estimate D2E/DX2                !
 ! R30   R(24,25)                1.0873         estimate D2E/DX2                !
 ! R31   R(29,30)                1.4703         estimate D2E/DX2                !
 ! R32   R(30,31)                0.975          estimate D2E/DX2                !
 ! A1    A(2,1,5)              120.0359         estimate D2E/DX2                !
 ! A2    A(2,1,8)              119.9856         estimate D2E/DX2                !
 ! A3    A(5,1,8)              119.9786         estimate D2E/DX2                !
 ! A4    A(1,2,3)              119.9268         estimate D2E/DX2                !
 ! A5    A(1,2,9)              120.0233         estimate D2E/DX2                !
 ! A6    A(3,2,9)              120.0499         estimate D2E/DX2                !
 ! A7    A(2,3,4)              120.0462         estimate D2E/DX2                !
 ! A8    A(2,3,10)             119.9616         estimate D2E/DX2                !
 ! A9    A(4,3,10)             119.9922         estimate D2E/DX2                !
 ! A10   A(3,4,6)              120.2513         estimate D2E/DX2                !
 ! A11   A(3,4,11)             119.564          estimate D2E/DX2                !
 ! A12   A(6,4,11)             120.1845         estimate D2E/DX2                !
 ! A13   A(1,5,6)              120.2709         estimate D2E/DX2                !
 ! A14   A(1,5,7)              119.5618         estimate D2E/DX2                !
 ! A15   A(6,5,7)              120.1673         estimate D2E/DX2                !
 ! A16   A(4,6,5)              119.4688         estimate D2E/DX2                !
 ! A17   A(4,6,12)             120.3863         estimate D2E/DX2                !
 ! A18   A(5,6,12)             120.1438         estimate D2E/DX2                !
 ! A19   A(6,12,13)            112.0567         estimate D2E/DX2                !
 ! A20   A(6,12,14)            109.3738         estimate D2E/DX2                !
 ! A21   A(6,12,15)            109.8235         estimate D2E/DX2                !
 ! A22   A(13,12,14)           109.3709         estimate D2E/DX2                !
 ! A23   A(13,12,15)           109.2937         estimate D2E/DX2                !
 ! A24   A(14,12,15)           106.7793         estimate D2E/DX2                !
 ! A25   A(12,13,16)           111.5489         estimate D2E/DX2                !
 ! A26   A(12,13,17)           109.905          estimate D2E/DX2                !
 ! A27   A(12,13,18)           109.0868         estimate D2E/DX2                !
 ! A28   A(16,13,17)           110.3563         estimate D2E/DX2                !
 ! A29   A(16,13,18)           109.218          estimate D2E/DX2                !
 ! A30   A(17,13,18)           106.5891         estimate D2E/DX2                !
 ! A31   A(13,16,19)           120.1041         estimate D2E/DX2                !
 ! A32   A(13,16,20)           120.5021         estimate D2E/DX2                !
 ! A33   A(19,16,20)           119.3917         estimate D2E/DX2                !
 ! A34   A(16,19,21)           120.3022         estimate D2E/DX2                !
 ! A35   A(16,19,22)           120.1918         estimate D2E/DX2                !
 ! A36   A(21,19,22)           119.5059         estimate D2E/DX2                !
 ! A37   A(16,20,24)           120.2849         estimate D2E/DX2                !
 ! A38   A(16,20,26)           120.2844         estimate D2E/DX2                !
 ! A39   A(24,20,26)           119.4307         estimate D2E/DX2                !
 ! A40   A(19,21,23)           120.0468         estimate D2E/DX2                !
 ! A41   A(19,21,27)           119.9816         estimate D2E/DX2                !
 ! A42   A(23,21,27)           119.9715         estimate D2E/DX2                !
 ! A43   A(21,23,24)           119.9135         estimate D2E/DX2                !
 ! A44   A(21,23,28)           120.05           estimate D2E/DX2                !
 ! A45   A(24,23,28)           120.0365         estimate D2E/DX2                !
 ! A46   A(20,24,23)           120.0602         estimate D2E/DX2                !
 ! A47   A(20,24,25)           119.9499         estimate D2E/DX2                !
 ! A48   A(23,24,25)           119.9899         estimate D2E/DX2                !
 ! A49   A(17,29,30)           142.871          estimate D2E/DX2                !
 ! A50   A(29,30,31)            99.1899         estimate D2E/DX2                !
 ! A51   L(13,17,29,1,-1)      177.7544         estimate D2E/DX2                !
 ! A52   L(13,17,29,1,-2)      182.6            estimate D2E/DX2                !
 ! D1    D(5,1,2,3)             -0.0596         estimate D2E/DX2                !
 ! D2    D(5,1,2,9)            179.9786         estimate D2E/DX2                !
 ! D3    D(8,1,2,3)            179.9636         estimate D2E/DX2                !
 ! D4    D(8,1,2,9)              0.0019         estimate D2E/DX2                !
 ! D5    D(2,1,5,6)              0.0651         estimate D2E/DX2                !
 ! D6    D(2,1,5,7)           -179.874          estimate D2E/DX2                !
 ! D7    D(8,1,5,6)           -179.9582         estimate D2E/DX2                !
 ! D8    D(8,1,5,7)              0.1028         estimate D2E/DX2                !
 ! D9    D(1,2,3,4)             -0.0236         estimate D2E/DX2                !
 ! D10   D(1,2,3,10)          -179.9619         estimate D2E/DX2                !
 ! D11   D(9,2,3,4)            179.9381         estimate D2E/DX2                !
 ! D12   D(9,2,3,10)            -0.0001         estimate D2E/DX2                !
 ! D13   D(2,3,4,6)              0.102          estimate D2E/DX2                !
 ! D14   D(2,3,4,11)          -179.9956         estimate D2E/DX2                !
 ! D15   D(10,3,4,6)          -179.9598         estimate D2E/DX2                !
 ! D16   D(10,3,4,11)           -0.0574         estimate D2E/DX2                !
 ! D17   D(3,4,6,5)             -0.0963         estimate D2E/DX2                !
 ! D18   D(3,4,6,12)           179.51           estimate D2E/DX2                !
 ! D19   D(11,4,6,5)          -179.998          estimate D2E/DX2                !
 ! D20   D(11,4,6,12)           -0.3917         estimate D2E/DX2                !
 ! D21   D(1,5,6,4)              0.0128         estimate D2E/DX2                !
 ! D22   D(1,5,6,12)          -179.5944         estimate D2E/DX2                !
 ! D23   D(7,5,6,4)            179.9515         estimate D2E/DX2                !
 ! D24   D(7,5,6,12)             0.3442         estimate D2E/DX2                !
 ! D25   D(4,6,12,13)          -94.9161         estimate D2E/DX2                !
 ! D26   D(4,6,12,14)          143.6287         estimate D2E/DX2                !
 ! D27   D(4,6,12,15)           26.7533         estimate D2E/DX2                !
 ! D28   D(5,6,12,13)           84.6875         estimate D2E/DX2                !
 ! D29   D(5,6,12,14)          -36.7677         estimate D2E/DX2                !
 ! D30   D(5,6,12,15)         -153.6431         estimate D2E/DX2                !
 ! D31   D(6,12,13,16)        -176.7142         estimate D2E/DX2                !
 ! D32   D(6,12,13,17)          60.551          estimate D2E/DX2                !
 ! D33   D(6,12,13,18)         -55.975          estimate D2E/DX2                !
 ! D34   D(14,12,13,16)        -55.2574         estimate D2E/DX2                !
 ! D35   D(14,12,13,17)       -177.9922         estimate D2E/DX2                !
 ! D36   D(14,12,13,18)         65.4818         estimate D2E/DX2                !
 ! D37   D(15,12,13,16)         61.313          estimate D2E/DX2                !
 ! D38   D(15,12,13,17)        -61.4218         estimate D2E/DX2                !
 ! D39   D(15,12,13,18)       -177.9478         estimate D2E/DX2                !
 ! D40   D(12,13,16,19)         90.5634         estimate D2E/DX2                !
 ! D41   D(12,13,16,20)        -88.9116         estimate D2E/DX2                !
 ! D42   D(17,13,16,19)       -146.9604         estimate D2E/DX2                !
 ! D43   D(17,13,16,20)         33.5646         estimate D2E/DX2                !
 ! D44   D(18,13,16,19)        -30.0991         estimate D2E/DX2                !
 ! D45   D(18,13,16,20)        150.4259         estimate D2E/DX2                !
 ! D46   D(12,13,29,30)         28.2403         estimate D2E/DX2                !
 ! D47   D(16,13,29,30)        -96.2434         estimate D2E/DX2                !
 ! D48   D(18,13,29,30)        145.569          estimate D2E/DX2                !
 ! D49   D(13,16,19,21)       -179.7193         estimate D2E/DX2                !
 ! D50   D(13,16,19,22)          0.1803         estimate D2E/DX2                !
 ! D51   D(20,16,19,21)         -0.2384         estimate D2E/DX2                !
 ! D52   D(20,16,19,22)        179.6611         estimate D2E/DX2                !
 ! D53   D(13,16,20,24)        179.7949         estimate D2E/DX2                !
 ! D54   D(13,16,20,26)         -0.2517         estimate D2E/DX2                !
 ! D55   D(19,16,20,24)          0.3161         estimate D2E/DX2                !
 ! D56   D(19,16,20,26)       -179.7305         estimate D2E/DX2                !
 ! D57   D(16,19,21,23)          0.0278         estimate D2E/DX2                !
 ! D58   D(16,19,21,27)       -179.9808         estimate D2E/DX2                !
 ! D59   D(22,19,21,23)       -179.8724         estimate D2E/DX2                !
 ! D60   D(22,19,21,27)          0.119          estimate D2E/DX2                !
 ! D61   D(16,20,24,23)         -0.1834         estimate D2E/DX2                !
 ! D62   D(16,20,24,25)        179.8242         estimate D2E/DX2                !
 ! D63   D(26,20,24,23)        179.8628         estimate D2E/DX2                !
 ! D64   D(26,20,24,25)         -0.1296         estimate D2E/DX2                !
 ! D65   D(19,21,23,24)          0.1072         estimate D2E/DX2                !
 ! D66   D(19,21,23,28)       -179.9409         estimate D2E/DX2                !
 ! D67   D(27,21,23,24)       -179.8841         estimate D2E/DX2                !
 ! D68   D(27,21,23,28)          0.0677         estimate D2E/DX2                !
 ! D69   D(21,23,24,20)         -0.0297         estimate D2E/DX2                !
 ! D70   D(21,23,24,25)        179.9627         estimate D2E/DX2                !
 ! D71   D(28,23,24,20)       -179.9816         estimate D2E/DX2                !
 ! D72   D(28,23,24,25)          0.0108         estimate D2E/DX2                !
 ! D73   D(17,29,30,31)        -93.0015         estimate D2E/DX2                !
 --------------------------------------------------------------------------------
 Trust Radius=3.00D-01 FncErr=1.00D-05 GrdErr=1.00D-04 EigMax=2.50D+02 EigMin=1.00D-04
 Number of steps in this run=    186 maximum allowed number of steps=    186.
 GradGradGradGradGradGradGradGradGradGradGradGradGradGradGradGradGradGrad

                          Input orientation:                          
 ---------------------------------------------------------------------
 Center     Atomic      Atomic             Coordinates (Angstroms)
 Number     Number       Type             X           Y           Z
 ---------------------------------------------------------------------
      1          6           0       -6.968910    0.415860    0.436270
      2          6           0       -7.556860   -0.788820    0.056480
      3          6           0       -6.791300   -1.767760   -0.573610
      4          6           0       -5.438920   -1.542140   -0.824230
      5          6           0       -5.616240    0.640970    0.187320
      6          6           0       -4.844340   -0.336840   -0.444030
      7          1           0       -5.164690    1.583370    0.488920
      8          1           0       -7.565570    1.180690    0.927500
      9          1           0       -8.612130   -0.964370    0.251120
     10          1           0       -7.249690   -2.707830   -0.870790
     11          1           0       -4.848710   -2.311680   -1.316620
     12          6           0       -3.367040   -0.091930   -0.705880
     13          6           0       -2.495450   -0.445560    0.517090
     14          1           0       -3.214540    0.957960   -0.968280
     15          1           0       -3.040030   -0.682680   -1.565340
     16          6           0       -1.028460   -0.120700    0.271020
     17          1           0       -2.614650   -1.507580    0.766280
     18          1           0       -2.848860    0.119940    1.383510
     19          6           0       -0.522260    1.135850    0.612220
     20          6           0       -0.179350   -1.068400   -0.306360
     21          6           0        0.818560    1.439640    0.383410
     22          1           0       -1.172900    1.885210    1.057250
     23          6           0        1.661410    0.489140   -0.188500
     24          6           0        1.161700   -0.764730   -0.533480
     25          1           0        1.818260   -1.507280   -0.980460
     26          1           0       -0.559260   -2.049900   -0.581760
     27          1           0        1.207120    2.419170    0.651280
     28          1           0        2.707660    0.725750   -0.366140
     29          8           0       -2.775820   -2.558830    1.063630
     30          8           0       -3.114660   -3.887980    0.534300
     31          1           0       -4.080760   -3.865570    0.663940
 ---------------------------------------------------------------------
                    Distance matrix (angstroms):
                    1          2          3          4          5
     1  C    0.000000
     2  C    1.393262   0.000000
     3  C    2.412385   1.393348   0.000000
     4  C    2.786305   2.414293   1.393789   0.000000
     5  C    1.393688   2.414006   2.785994   2.412601   0.000000
     6  C    2.419769   2.795096   2.419706   1.396720   1.396619
     7  H    2.149665   3.396582   3.873616   3.401232   1.087648
     8  H    1.087325   2.153537   3.397967   3.873629   2.153846
     9  H    2.153947   1.087335   2.154307   3.399920   3.399492
    10  H    3.397747   2.153319   1.087276   2.154040   3.873270
    11  H    3.873932   3.396849   2.149783   1.087652   3.401335
    12  C    3.812588   4.315257   3.814637   2.531759   2.528606
    13  C    4.556360   5.093904   4.625167   3.415500   3.320938
    14  H    4.044988   4.791359   4.514258   3.349495   2.684037
    15  H    4.544153   4.800346   4.029014   2.653788   3.385369
    16  C    5.966921   6.566005   6.052812   4.761536   4.651330
    17  H    4.771594   5.044390   4.394019   3.241515   3.736443
    18  H    4.237882   4.975150   4.789213   3.787484   3.059532
    19  C    6.489117   7.314287   7.009851   5.780014   5.135570
    20  C    6.989467   7.391716   6.654202   5.306194   5.720615
    21  C    7.854655   8.672980   8.313439   7.036012   6.487139
    22  H    6.011517   6.993348   6.897124   5.786676   4.695549
    23  C    8.653215   9.309656   8.757295   7.412485   7.288929
    24  C    8.272909   8.738531   8.016102   6.652600   6.959599
    25  H    9.106039   9.459614   8.623103   7.258945   7.826268
    26  H    6.942620   7.138913   6.238429   4.911995   5.779733
    27  H    8.420626   9.351595   9.110733   7.876481   7.066505
    28  H    9.714726  10.384262   9.822977   8.468762   8.342710
    29  O    5.179224   5.196694   4.407996   3.419031   4.367451
    30  O    5.778226   5.437485   4.386397   3.570820   5.185527
    31  H    5.169515   4.681738   3.644086   3.075317   4.784743
                    6          7          8          9         10
     6  C    0.000000
     7  H    2.158756   0.000000
     8  H    3.404274   2.473606   0.000000
     9  H    3.882431   4.293294   2.480738   0.000000
    10  H    3.404325   4.960890   4.295837   2.480842   0.000000
    11  H    2.159033   4.304792   4.961255   4.293761   2.473945
    12  C    1.520185   2.732347   4.681362   5.402589   4.684560
    13  C    2.540247   3.352938   5.340341   6.144402   5.444894
    14  H    2.146530   2.513494   4.751321   5.858009   5.452518
    15  H    2.152319   3.724130   5.492441   5.867467   4.722803
    16  C    3.888310   4.478809   6.697641   7.630480   6.833789
    17  H    2.794101   4.016666   5.635991   6.044025   5.060059
    18  H    2.744174   2.881837   4.855975   5.972714   5.696091
    19  C    4.686668   4.665580   7.050506   8.365842   7.888695
    20  C    4.724009   5.702453   7.819019   8.451827   7.279837
    21  C    5.992410   5.985906   8.405755   9.733174   9.158121
    22  H    4.546517   4.043327   6.432683   8.007003   7.857527
    23  C    6.562951   6.946357   9.319917  10.385162   9.491777
    24  C    6.021927   6.825107   9.060042   9.807304   8.639496
    25  H    6.785862   7.776425   9.945942  10.516871   9.147736
    26  H    4.616866   5.962968   7.861486   8.168279   6.728913
    27  H    6.739100   6.428443   8.863984  10.393563  10.006021
    28  H    7.626786   7.964957  10.364349  11.461900  10.544807
    29  O    3.389551   4.816099   6.078178   6.104506   4.876443
    30  O    4.069339   5.842975   6.756968   6.232966   4.523882
    31  H    3.776584   5.558461   6.138249   5.396360   3.706464
                   11         12         13         14         15
    11  H    0.000000
    12  C    2.737817   0.000000
    13  C    3.518910   1.542848   0.000000
    14  H    3.671839   1.092876   2.166399   0.000000
    15  H    2.446799   1.092974   2.165481   1.754604   0.000000
    16  C    4.681378   2.534584   1.522545   2.734651   2.781089
    17  H    3.158492   2.176559   1.097356   3.073671   2.509554
    18  H    4.147635   2.163088   1.093331   2.523275   3.062101
    19  C    5.858674   3.367136   2.530491   3.126979   3.793150
    20  C    4.936526   3.357749   2.535807   3.708996   3.149175
    21  C    7.005744   4.588192   3.815038   4.280768   4.815660
    22  H    6.063062   3.439762   2.733752   3.021731   4.118035
    23  C    7.176274   5.088284   4.318681   4.960115   5.037101
    24  C    6.255509   4.581688   3.818418   4.723154   4.327355
    25  H    6.723731   5.382002   4.688070   5.604162   4.962361
    26  H    4.359808   3.425300   2.744123   4.030773   2.998490
    27  H    7.932632   5.391702   4.683344   4.930435   5.707290
    28  H    8.199276   6.138893   5.405961   5.957260   6.038021
    29  O    3.165998   3.092944   2.200732   4.085211   3.240560
    30  O    2.986228   4.001467   3.497710   5.074530   3.832493
    31  H    2.631908   4.077519   3.772432   5.165358   4.022884
                   16         17         18         19         20
    16  C    0.000000
    17  H    2.164421   0.000000
    18  H    2.146951   1.756317   0.000000
    19  C    1.396987   3.374841   2.653305   0.000000
    20  C    1.397316   2.697058   3.375514   2.412487   0.000000
    21  C    2.420491   4.540884   4.023901   1.393715   2.786014
    22  H    2.159328   3.697882   2.455904   1.087623   3.401527
    23  C    2.796152   4.814892   4.790622   2.414084   2.414171
    24  C    2.420495   4.062268   4.532337   2.785777   1.393633
    25  H    3.404794   4.764640   5.478887   3.873087   2.153479
    26  H    2.160832   2.517131   3.716552   3.402346   1.087897
    27  H    3.404902   5.480741   4.719491   2.153878   3.873308
    28  H    3.883432   5.881932   5.856893   3.399670   3.399614
    29  O    3.102576   1.104319   2.698790   4.351203   3.292402
    30  O    4.314388   2.443385   4.105512   5.653802   4.156054
    31  H    4.847161   2.778501   4.233161   6.138387   4.897616
                   21         22         23         24         25
    21  C    0.000000
    22  H    2.149071   0.000000
    23  C    1.393172   3.396206   0.000000
    24  C    2.411987   3.873366   1.393166   0.000000
    25  H    3.397628   4.960674   2.153484   1.087310   0.000000
    26  H    3.873865   4.306739   3.395991   2.148417   2.471032
    27  H    1.087296   2.472735   2.153283   3.397490   4.295704
    28  H    2.154104   4.292917   1.087281   2.153956   2.480896
    29  O    5.419412   4.724287   5.526930   4.612333   5.137084
    30  O    6.623936   6.113398   6.518624   5.402046   5.682951
    31  H    7.226845   6.456145   7.256905   6.207448   6.562318
                   26         27         28         29         30
    26  H    0.000000
    27  H    4.961156   0.000000
    28  H    4.292259   2.480813   0.000000
    29  O    2.807037   6.388609   6.549905   0.000000
    30  O    3.339790   7.646673   7.483095   1.470253   0.000000
    31  H    4.153238   8.213391   8.259778   1.889495   0.975017
                   31
    31  H    0.000000
 Stoichiometry    C14H15O2(2)
 Framework group  C1[X(C14H15O2)]
 Deg. of freedom    87
 Full point group                 C1      NOp   1
 Largest Abelian subgroup         C1      NOp   1
 Largest concise Abelian subgroup C1      NOp   1
                         Standard orientation:                         
 ---------------------------------------------------------------------
 Center     Atomic      Atomic             Coordinates (Angstroms)
 Number     Number       Type             X           Y           Z
 ---------------------------------------------------------------------
      1          6           0       -3.806775   -1.657872   -0.443148
      2          6           0       -4.573602   -0.556378   -0.069160
      3          6           0       -3.971756    0.523859    0.572937
      4          6           0       -2.604223    0.502550    0.841351
      5          6           0       -2.439010   -1.678627   -0.176399
      6          6           0       -1.830744   -0.598562    0.467041
      7          1           0       -1.847374   -2.541548   -0.473573
      8          1           0       -4.275558   -2.501629   -0.943739
      9          1           0       -5.640632   -0.540251   -0.277686
     10          1           0       -4.569747    1.383467    0.865595
     11          1           0       -2.142538    1.349992    1.343024
     12          6           0       -0.336968   -0.620261    0.748333
     13          6           0        0.487639   -0.135353   -0.462148
     14          1           0       -0.032222   -1.636418    1.010886
     15          1           0       -0.113471    0.009571    1.613176
     16          6           0        1.983415   -0.237584   -0.196917
     17          1           0        0.213822    0.897738   -0.711022
     18          1           0        0.234348   -0.744151   -1.334261
     19          6           0        2.676696   -1.402761   -0.533513
     20          6           0        2.673231    0.824490    0.393544
     21          6           0        4.044805   -1.503007   -0.287203
     22          1           0        2.151625   -2.239489   -0.988608
     23          6           0        4.728083   -0.439083    0.297710
     24          6           0        4.041571    0.724404    0.638168
     25          1           0        4.573490    1.555278    1.095281
     26          1           0        2.146898    1.736906    0.665556
     27          1           0        4.579295   -2.412207   -0.551565
     28          1           0        5.795573   -0.516868    0.489007
     29          8           0       -0.099243    1.914073   -1.008636
     30          8           0       -0.640410    3.175403   -0.481543
     31          1           0       -1.590455    3.008927   -0.624227
 ---------------------------------------------------------------------
 Rotational constants (GHZ):           1.0234990           0.2607550           0.2210476
 Standard basis: 6-311+G(2df,2p) (5D, 7F)
 There are   759 symmetry adapted cartesian basis functions of A   symmetry.
 There are   679 symmetry adapted basis functions of A   symmetry.
   679 basis functions,   997 primitive gaussians,   759 cartesian basis functions
    58 alpha electrons       57 beta electrons
       nuclear repulsion energy      1002.8924547402 Hartrees.
 NAtoms=   31 NActive=   31 NUniq=   31 SFac= 1.00D+00 NAtFMM=   60 NAOKFM=F Big=F
 Integral buffers will be    131072 words long.
 Raffenetti 2 integral format.
 Two-electron integral symmetry is turned on.
 One-electron integrals computed using PRISM.
 NBasis=   679 RedAO= T EigKep=  1.17D-06  NBF=   679
 NBsUse=   679 1.00D-06 EigRej= -1.00D+00 NBFU=   679
 ExpMin= 4.38D-02 ExpMax= 8.59D+03 ExpMxC= 1.30D+03 IAcc=2 IRadAn=         4 AccDes= 0.00D+00
 Harris functional with IExCor= 1009 and IRadAn=       4 diagonalized for initial guess.
 HarFok:  IExCor= 1009 AccDes= 0.00D+00 IRadAn=         4 IDoV= 1 UseB2=F ITyADJ=14
 ICtDFT=  3500011 ScaDFX=  1.000000  1.000000  1.000000  1.000000
 FoFCou: FMM=F IPFlag=           0 FMFlag=      100000 FMFlg1=           0
         NFxFlg=           0 DoJE=T BraDBF=F KetDBF=T FulRan=T
         wScrn=  0.000000 ICntrl=       500 IOpCl=  0 I1Cent=   200000004 NGrid=           0
         NMat0=    1 NMatS0=      1 NMatT0=    0 NMatD0=    1 NMtDS0=    0 NMtDT0=    0
 Petite list used in FoFCou.
 Initial guess <Sx>= 0.0000 <Sy>= 0.0000 <Sz>= 0.5000 <S**2>= 0.7500 S= 0.5000
 Requested convergence on RMS density matrix=1.00D-08 within 128 cycles.
 Requested convergence on MAX density matrix=1.00D-06.
 Requested convergence on             energy=1.00D-06.
 No special actions if energy rises.
 Restarting incremental Fock formation.
 SCF Done:  E(UM062X) =  -692.677531566     A.U. after   22 cycles
            NFock= 22  Conv=0.41D-08     -V/T= 2.0040
 <Sx>= 0.0000 <Sy>= 0.0000 <Sz>= 0.5000 <S**2>= 0.7619 S= 0.5059
 <L.S>= 0.000000000000E+00
 Annihilation of the first spin contaminant:
 S**2 before annihilation     0.7619,   after     0.7501

 **********************************************************************

            Population analysis using the SCF density.

 **********************************************************************

 Orbital symmetries:
 Alpha Orbitals:
       Occupied  (A) (A) (A) (A) (A) (A) (A) (A) (A) (A) (A) (A)
                 (A) (A) (A) (A) (A) (A) (A) (A) (A) (A) (A) (A)
                 (A) (A) (A) (A) (A) (A) (A) (A) (A) (A) (A) (A)
                 (A) (A) (A) (A) (A) (A) (A) (A) (A) (A) (A) (A)
                 (A) (A) (A) (A) (A) (A) (A) (A) (A) (A)
       Virtual   (A) (A) (A) (A) (A) (A) (A) (A) (A) (A) (A) (A)
                 (A) (A) (A) (A) (A) (A) (A) (A) (A) (A) (A) (A)
                 (A) (A) (A) (A) (A) (A) (A) (A) (A) (A) (A) (A)
                 (A) (A) (A) (A) (A) (A) (A) (A) (A) (A) (A) (A)
                 (A) (A) (A) (A) (A) (A) (A) (A) (A) (A) (A) (A)
                 (A) (A) (A) (A) (A) (A) (A) (A) (A) (A) (A) (A)
                 (A) (A) (A) (A) (A) (A) (A) (A) (A) (A) (A) (A)
                 (A) (A) (A) (A) (A) (A) (A) (A) (A) (A) (A) (A)
                 (A) (A) (A) (A) (A) (A) (A) (A) (A) (A) (A) (A)
                 (A) (A) (A) (A) (A) (A) (A) (A) (A) (A) (A) (A)
                 (A) (A) (A) (A) (A) (A) (A) (A) (A) (A) (A) (A)
                 (A) (A) (A) (A) (A) (A) (A) (A) (A) (A) (A) (A)
                 (A) (A) (A) (A) (A) (A) (A) (A) (A) (A) (A) (A)
                 (A) (A) (A) (A) (A) (A) (A) (A) (A) (A) (A) (A)
                 (A) (A) (A) (A) (A) (A) (A) (A) (A) (A) (A) (A)
                 (A) (A) (A) (A) (A) (A) (A) (A) (A) (A) (A) (A)
                 (A) (A) (A) (A) (A) (A) (A) (A) (A) (A) (A) (A)
                 (A) (A) (A) (A) (A) (A) (A) (A) (A) (A) (A) (A)
                 (A) (A) (A) (A) (A) (A) (A) (A) (A) (A) (A) (A)
                 (A) (A) (A) (A) (A) (A) (A) (A) (A) (A) (A) (A)
                 (A) (A) (A) (A) (A) (A) (A) (A) (A) (A) (A) (A)
                 (A) (A) (A) (A) (A) (A) (A) (A) (A) (A) (A) (A)
                 (A) (A) (A) (A) (A) (A) (A) (A) (A) (A) (A) (A)
                 (A) (A) (A) (A) (A) (A) (A) (A) (A) (A) (A) (A)
                 (A) (A) (A) (A) (A) (A) (A) (A) (A) (A) (A) (A)
                 (A) (A) (A) (A) (A) (A) (A) (A) (A) (A) (A) (A)
                 (A) (A) (A) (A) (A) (A) (A) (A) (A) (A) (A) (A)
                 (A) (A) (A) (A) (A) (A) (A) (A) (A) (A) (A) (A)
                 (A) (A) (A) (A) (A) (A) (A) (A) (A) (A) (A) (A)
                 (A) (A) (A) (A) (A) (A) (A) (A) (A) (A) (A) (A)
                 (A) (A) (A) (A) (A) (A) (A) (A) (A) (A) (A) (A)
                 (A) (A) (A) (A) (A) (A) (A) (A) (A) (A) (A) (A)
                 (A) (A) (A) (A) (A) (A) (A) (A) (A) (A) (A) (A)
                 (A) (A) (A) (A) (A) (A) (A) (A) (A) (A) (A) (A)
                 (A) (A) (A) (A) (A) (A) (A) (A) (A) (A) (A) (A)
                 (A) (A) (A) (A) (A) (A) (A) (A) (A) (A) (A) (A)
                 (A) (A) (A) (A) (A) (A) (A) (A) (A) (A) (A) (A)
                 (A) (A) (A) (A) (A) (A) (A) (A) (A) (A) (A) (A)
                 (A) (A) (A) (A) (A) (A) (A) (A) (A) (A) (A) (A)
                 (A) (A) (A) (A) (A) (A) (A) (A) (A) (A) (A) (A)
                 (A) (A) (A) (A) (A) (A) (A) (A) (A) (A) (A) (A)
                 (A) (A) (A) (A) (A) (A) (A) (A) (A) (A) (A) (A)
                 (A) (A) (A) (A) (A) (A) (A) (A) (A) (A) (A) (A)
                 (A) (A) (A) (A) (A) (A) (A) (A) (A) (A) (A) (A)
                 (A) (A) (A) (A) (A) (A) (A) (A) (A) (A) (A) (A)
                 (A) (A) (A) (A) (A) (A) (A) (A) (A) (A) (A) (A)
                 (A) (A) (A) (A) (A) (A) (A) (A) (A) (A) (A) (A)
                 (A) (A) (A) (A) (A) (A) (A) (A) (A) (A) (A) (A)
                 (A) (A) (A) (A) (A) (A) (A) (A) (A) (A) (A) (A)
                 (A) (A) (A) (A) (A) (A) (A) (A) (A) (A) (A) (A)
                 (A) (A) (A) (A) (A) (A) (A) (A) (A) (A) (A) (A)
                 (A) (A) (A) (A) (A) (A) (A) (A) (A)
 Beta  Orbitals:
       Occupied  (A) (A) (A) (A) (A) (A) (A) (A) (A) (A) (A) (A)
                 (A) (A) (A) (A) (A) (A) (A) (A) (A) (A) (A) (A)
                 (A) (A) (A) (A) (A) (A) (A) (A) (A) (A) (A) (A)
                 (A) (A) (A) (A) (A) (A) (A) (A) (A) (A) (A) (A)
                 (A) (A) (A) (A) (A) (A) (A) (A) (A)
       Virtual   (A) (A) (A) (A) (A) (A) (A) (A) (A) (A) (A) (A)
                 (A) (A) (A) (A) (A) (A) (A) (A) (A) (A) (A) (A)
                 (A) (A) (A) (A) (A) (A) (A) (A) (A) (A) (A) (A)
                 (A) (A) (A) (A) (A) (A) (A) (A) (A) (A) (A) (A)
                 (A) (A) (A) (A) (A) (A) (A) (A) (A) (A) (A) (A)
                 (A) (A) (A) (A) (A) (A) (A) (A) (A) (A) (A) (A)
                 (A) (A) (A) (A) (A) (A) (A) (A) (A) (A) (A) (A)
                 (A) (A) (A) (A) (A) (A) (A) (A) (A) (A) (A) (A)
                 (A) (A) (A) (A) (A) (A) (A) (A) (A) (A) (A) (A)
                 (A) (A) (A) (A) (A) (A) (A) (A) (A) (A) (A) (A)
                 (A) (A) (A) (A) (A) (A) (A) (A) (A) (A) (A) (A)
                 (A) (A) (A) (A) (A) (A) (A) (A) (A) (A) (A) (A)
                 (A) (A) (A) (A) (A) (A) (A) (A) (A) (A) (A) (A)
                 (A) (A) (A) (A) (A) (A) (A) (A) (A) (A) (A) (A)
                 (A) (A) (A) (A) (A) (A) (A) (A) (A) (A) (A) (A)
                 (A) (A) (A) (A) (A) (A) (A) (A) (A) (A) (A) (A)
                 (A) (A) (A) (A) (A) (A) (A) (A) (A) (A) (A) (A)
                 (A) (A) (A) (A) (A) (A) (A) (A) (A) (A) (A) (A)
                 (A) (A) (A) (A) (A) (A) (A) (A) (A) (A) (A) (A)
                 (A) (A) (A) (A) (A) (A) (A) (A) (A) (A) (A) (A)
                 (A) (A) (A) (A) (A) (A) (A) (A) (A) (A) (A) (A)
                 (A) (A) (A) (A) (A) (A) (A) (A) (A) (A) (A) (A)
                 (A) (A) (A) (A) (A) (A) (A) (A) (A) (A) (A) (A)
                 (A) (A) (A) (A) (A) (A) (A) (A) (A) (A) (A) (A)
                 (A) (A) (A) (A) (A) (A) (A) (A) (A) (A) (A) (A)
                 (A) (A) (A) (A) (A) (A) (A) (A) (A) (A) (A) (A)
                 (A) (A) (A) (A) (A) (A) (A) (A) (A) (A) (A) (A)
                 (A) (A) (A) (A) (A) (A) (A) (A) (A) (A) (A) (A)
                 (A) (A) (A) (A) (A) (A) (A) (A) (A) (A) (A) (A)
                 (A) (A) (A) (A) (A) (A) (A) (A) (A) (A) (A) (A)
                 (A) (A) (A) (A) (A) (A) (A) (A) (A) (A) (A) (A)
                 (A) (A) (A) (A) (A) (A) (A) (A) (A) (A) (A) (A)
                 (A) (A) (A) (A) (A) (A) (A) (A) (A) (A) (A) (A)
                 (A) (A) (A) (A) (A) (A) (A) (A) (A) (A) (A) (A)
                 (A) (A) (A) (A) (A) (A) (A) (A) (A) (A) (A) (A)
                 (A) (A) (A) (A) (A) (A) (A) (A) (A) (A) (A) (A)
                 (A) (A) (A) (A) (A) (A) (A) (A) (A) (A) (A) (A)
                 (A) (A) (A) (A) (A) (A) (A) (A) (A) (A) (A) (A)
                 (A) (A) (A) (A) (A) (A) (A) (A) (A) (A) (A) (A)
                 (A) (A) (A) (A) (A) (A) (A) (A) (A) (A) (A) (A)
                 (A) (A) (A) (A) (A) (A) (A) (A) (A) (A) (A) (A)
                 (A) (A) (A) (A) (A) (A) (A) (A) (A) (A) (A) (A)
                 (A) (A) (A) (A) (A) (A) (A) (A) (A) (A) (A) (A)
                 (A) (A) (A) (A) (A) (A) (A) (A) (A) (A) (A) (A)
                 (A) (A) (A) (A) (A) (A) (A) (A) (A) (A) (A) (A)
                 (A) (A) (A) (A) (A) (A) (A) (A) (A) (A) (A) (A)
                 (A) (A) (A) (A) (A) (A) (A) (A) (A) (A) (A) (A)
                 (A) (A) (A) (A) (A) (A) (A) (A) (A) (A) (A) (A)
                 (A) (A) (A) (A) (A) (A) (A) (A) (A) (A) (A) (A)
                 (A) (A) (A) (A) (A) (A) (A) (A) (A) (A) (A) (A)
                 (A) (A) (A) (A) (A) (A) (A) (A) (A) (A) (A) (A)
                 (A) (A) (A) (A) (A) (A) (A) (A) (A) (A)
 The electronic state is 2-A.
 Alpha  occ. eigenvalues --  -19.71085 -19.70496 -10.55787 -10.55593 -10.55277
 Alpha  occ. eigenvalues --  -10.55128 -10.55093 -10.55026 -10.54881 -10.54855
 Alpha  occ. eigenvalues --  -10.54772 -10.54680 -10.54597 -10.54485 -10.54360
 Alpha  occ. eigenvalues --  -10.54329  -1.25030  -1.04573  -0.97254  -0.96538
 Alpha  occ. eigenvalues --   -0.90451  -0.86068  -0.84954  -0.84475  -0.80929
 Alpha  occ. eigenvalues --   -0.74333  -0.69801  -0.69257  -0.67882  -0.67115
 Alpha  occ. eigenvalues --   -0.63158  -0.59337  -0.58775  -0.58088  -0.54445
 Alpha  occ. eigenvalues --   -0.53555  -0.53516  -0.52631  -0.52045  -0.49635
 Alpha  occ. eigenvalues --   -0.49474  -0.49009  -0.48331  -0.46997  -0.45474
 Alpha  occ. eigenvalues --   -0.44251  -0.42653  -0.41394  -0.41367  -0.40746
 Alpha  occ. eigenvalues --   -0.40608  -0.40307  -0.38768  -0.33773  -0.31588
 Alpha  occ. eigenvalues --   -0.31091  -0.31065  -0.29453
 Alpha virt. eigenvalues --    0.00065   0.00427   0.00837   0.01061   0.01396
 Alpha virt. eigenvalues --    0.01573   0.02122   0.02475   0.02922   0.03272
 Alpha virt. eigenvalues --    0.04067   0.04398   0.04522   0.05152   0.06059
 Alpha virt. eigenvalues --    0.06498   0.06655   0.06886   0.07524   0.08504
 Alpha virt. eigenvalues --    0.08899   0.09413   0.09969   0.10339   0.11024
 Alpha virt. eigenvalues --    0.11503   0.12109   0.12618   0.13128   0.13440
 Alpha virt. eigenvalues --    0.13823   0.14605   0.14695   0.14960   0.15252
 Alpha virt. eigenvalues --    0.15493   0.16069   0.16213   0.16716   0.17109
 Alpha virt. eigenvalues --    0.17960   0.17988   0.18289   0.18521   0.18620
 Alpha virt. eigenvalues --    0.19093   0.19574   0.20098   0.20358   0.21077
 Alpha virt. eigenvalues --    0.21338   0.21629   0.21682   0.22367   0.22547
 Alpha virt. eigenvalues --    0.22878   0.23268   0.23376   0.23632   0.23958
 Alpha virt. eigenvalues --    0.24150   0.24426   0.24659   0.24986   0.25456
 Alpha virt. eigenvalues --    0.25654   0.26260   0.26363   0.26757   0.27477
 Alpha virt. eigenvalues --    0.27495   0.27653   0.28860   0.29201   0.29535
 Alpha virt. eigenvalues --    0.29725   0.30133   0.30398   0.31187   0.31693
 Alpha virt. eigenvalues --    0.32591   0.33178   0.33943   0.34896   0.35132
 Alpha virt. eigenvalues --    0.35239   0.36006   0.36309   0.36809   0.37986
 Alpha virt. eigenvalues --    0.38587   0.39634   0.40141   0.40915   0.41598
 Alpha virt. eigenvalues --    0.42889   0.45123   0.46164   0.49461   0.50553
 Alpha virt. eigenvalues --    0.51826   0.52359   0.52541   0.53501   0.54114
 Alpha virt. eigenvalues --    0.54733   0.55009   0.55127   0.55549   0.55614
 Alpha virt. eigenvalues --    0.56020   0.56446   0.57240   0.57551   0.57791
 Alpha virt. eigenvalues --    0.58364   0.58984   0.59262   0.60061   0.61078
 Alpha virt. eigenvalues --    0.61247   0.61485   0.62270   0.63538   0.63844
 Alpha virt. eigenvalues --    0.64743   0.65770   0.66025   0.66438   0.66946
 Alpha virt. eigenvalues --    0.67107   0.67413   0.67466   0.67658   0.67990
 Alpha virt. eigenvalues --    0.68282   0.68652   0.69103   0.69261   0.69898
 Alpha virt. eigenvalues --    0.70779   0.71312   0.71821   0.72112   0.72172
 Alpha virt. eigenvalues --    0.72727   0.73067   0.73227   0.73325   0.74028
 Alpha virt. eigenvalues --    0.74355   0.74625   0.74811   0.75081   0.76007
 Alpha virt. eigenvalues --    0.77758   0.77780   0.78697   0.79419   0.79488
 Alpha virt. eigenvalues --    0.80520   0.80916   0.81753   0.82078   0.82749
 Alpha virt. eigenvalues --    0.83661   0.83902   0.84989   0.85374   0.85484
 Alpha virt. eigenvalues --    0.85935   0.87249   0.87576   0.88966   0.89737
 Alpha virt. eigenvalues --    0.90779   0.91536   0.93447   0.94471   0.96173
 Alpha virt. eigenvalues --    0.97645   0.98797   0.99481   1.00279   1.01212
 Alpha virt. eigenvalues --    1.01579   1.02499   1.02787   1.04015   1.05005
 Alpha virt. eigenvalues --    1.05510   1.06263   1.06767   1.06909   1.08331
 Alpha virt. eigenvalues --    1.08676   1.08997   1.10310   1.11893   1.12420
 Alpha virt. eigenvalues --    1.13342   1.13982   1.14518   1.15494   1.15705
 Alpha virt. eigenvalues --    1.16607   1.17045   1.17775   1.18356   1.19284
 Alpha virt. eigenvalues --    1.20087   1.20668   1.22338   1.22797   1.23257
 Alpha virt. eigenvalues --    1.24587   1.25642   1.26431   1.27580   1.28493
 Alpha virt. eigenvalues --    1.29355   1.30357   1.30883   1.31901   1.32393
 Alpha virt. eigenvalues --    1.33071   1.33175   1.34283   1.34323   1.34805
 Alpha virt. eigenvalues --    1.35302   1.36207   1.37438   1.37872   1.38601
 Alpha virt. eigenvalues --    1.38713   1.38946   1.39331   1.41210   1.41558
 Alpha virt. eigenvalues --    1.41970   1.42831   1.43192   1.44014   1.45252
 Alpha virt. eigenvalues --    1.46767   1.46946   1.47905   1.48204   1.49007
 Alpha virt. eigenvalues --    1.49423   1.49705   1.50685   1.51109   1.51855
 Alpha virt. eigenvalues --    1.52974   1.53538   1.54910   1.56648   1.57572
 Alpha virt. eigenvalues --    1.58270   1.59639   1.62243   1.63773   1.64514
 Alpha virt. eigenvalues --    1.66059   1.66885   1.67822   1.69422   1.70991
 Alpha virt. eigenvalues --    1.71200   1.72080   1.72408   1.73656   1.74038
 Alpha virt. eigenvalues --    1.74857   1.75812   1.76224   1.76978   1.77972
 Alpha virt. eigenvalues --    1.79064   1.80608   1.83890   1.84673   1.86388
 Alpha virt. eigenvalues --    1.88428   1.91308   1.97381   1.97860   2.00018
 Alpha virt. eigenvalues --    2.02716   2.03160   2.03647   2.04262   2.05373
 Alpha virt. eigenvalues --    2.05890   2.07516   2.16738   2.20651   2.22484
 Alpha virt. eigenvalues --    2.27893   2.29053   2.34085   2.46194   2.48512
 Alpha virt. eigenvalues --    2.52304   2.53895   2.55268   2.57498   2.58593
 Alpha virt. eigenvalues --    2.58915   2.61458   2.62425   2.64168   2.65913
 Alpha virt. eigenvalues --    2.66360   2.67688   2.68527   2.69118   2.69231
 Alpha virt. eigenvalues --    2.72461   2.72874   2.73782   2.74913   2.76016
 Alpha virt. eigenvalues --    2.76199   2.77490   2.77615   2.77959   2.78541
 Alpha virt. eigenvalues --    2.79207   2.79931   2.80401   2.81305   2.81859
 Alpha virt. eigenvalues --    2.82465   2.82814   2.82967   2.83898   2.84519
 Alpha virt. eigenvalues --    2.85242   2.85854   2.86112   2.87217   2.87378
 Alpha virt. eigenvalues --    2.87807   2.88043   2.88807   2.89810   2.90016
 Alpha virt. eigenvalues --    2.90781   2.91131   2.91371   2.91910   2.93170
 Alpha virt. eigenvalues --    2.93527   2.94457   2.95538   2.96460   2.97346
 Alpha virt. eigenvalues --    2.98241   2.99248   3.00196   3.01921   3.03079
 Alpha virt. eigenvalues --    3.05195   3.07193   3.07902   3.10348   3.11535
 Alpha virt. eigenvalues --    3.11908   3.13278   3.13626   3.14332   3.15036
 Alpha virt. eigenvalues --    3.15378   3.15866   3.17152   3.17831   3.18398
 Alpha virt. eigenvalues --    3.19254   3.19740   3.20077   3.21089   3.21567
 Alpha virt. eigenvalues --    3.21934   3.22431   3.23121   3.23969   3.25454
 Alpha virt. eigenvalues --    3.26410   3.28874   3.29042   3.29695   3.30058
 Alpha virt. eigenvalues --    3.30992   3.31154   3.32455   3.33496   3.34600
 Alpha virt. eigenvalues --    3.34962   3.35718   3.36638   3.37080   3.38441
 Alpha virt. eigenvalues --    3.38785   3.40439   3.40864   3.41957   3.42128
 Alpha virt. eigenvalues --    3.42297   3.43387   3.44293   3.44733   3.44829
 Alpha virt. eigenvalues --    3.45483   3.46516   3.47695   3.48507   3.49302
 Alpha virt. eigenvalues --    3.49572   3.50666   3.51975   3.52798   3.54778
 Alpha virt. eigenvalues --    3.56457   3.56914   3.57949   3.58784   3.59941
 Alpha virt. eigenvalues --    3.60288   3.61745   3.63072   3.64884   3.66974
 Alpha virt. eigenvalues --    3.67461   3.68055   3.70223   3.71030   3.72102
 Alpha virt. eigenvalues --    3.72146   3.72327   3.73278   3.73806   3.76580
 Alpha virt. eigenvalues --    3.77096   3.78724   3.78891   3.79328   3.79959
 Alpha virt. eigenvalues --    3.80500   3.81575   3.82177   3.82552   3.82926
 Alpha virt. eigenvalues --    3.83932   3.85435   3.87302   3.88823   3.89238
 Alpha virt. eigenvalues --    3.89512   3.89912   3.91210   3.91708   3.93757
 Alpha virt. eigenvalues --    3.94574   3.97554   3.98185   3.98588   3.99410
 Alpha virt. eigenvalues --    4.01676   4.02177   4.04936   4.05646   4.06505
 Alpha virt. eigenvalues --    4.07166   4.07980   4.08747   4.09413   4.11064
 Alpha virt. eigenvalues --    4.11496   4.11836   4.12795   4.13178   4.14501
 Alpha virt. eigenvalues --    4.16182   4.16552   4.18556   4.20792   4.22846
 Alpha virt. eigenvalues --    4.24265   4.25349   4.26613   4.28041   4.28734
 Alpha virt. eigenvalues --    4.29500   4.30583   4.32353   4.34024   4.35525
 Alpha virt. eigenvalues --    4.36580   4.36797   4.37195   4.38116   4.38948
 Alpha virt. eigenvalues --    4.39666   4.39868   4.40347   4.42318   4.43397
 Alpha virt. eigenvalues --    4.44187   4.44875   4.45508   4.45873   4.46360
 Alpha virt. eigenvalues --    4.47207   4.48250   4.49389   4.50053   4.50629
 Alpha virt. eigenvalues --    4.52776   4.56203   4.56726   4.57556   4.59174
 Alpha virt. eigenvalues --    4.61909   4.62422   4.63000   4.65494   4.66182
 Alpha virt. eigenvalues --    4.67192   4.68415   4.69230   4.71508   4.72788
 Alpha virt. eigenvalues --    4.75212   4.75861   4.77192   4.77434   4.79711
 Alpha virt. eigenvalues --    4.82018   4.89289   4.91153   4.92117   4.95410
 Alpha virt. eigenvalues --    4.97050   4.99866   5.02828   5.03967   5.04794
 Alpha virt. eigenvalues --    5.05088   5.06130   5.06366   5.07087   5.07886
 Alpha virt. eigenvalues --    5.09465   5.10693   5.11904   5.17326   5.19289
 Alpha virt. eigenvalues --    5.20138   5.22034   5.24917   5.25553   5.29086
 Alpha virt. eigenvalues --    5.35350   5.36971   5.37112   5.38990   5.42987
 Alpha virt. eigenvalues --    5.46259   5.48118   5.50309   5.55537   5.61955
 Alpha virt. eigenvalues --    5.65455   5.67182   5.67771   5.69706   5.70025
 Alpha virt. eigenvalues --    5.73632   5.73900   5.75093   5.75531   5.79303
 Alpha virt. eigenvalues --    5.80660   5.89991   5.99544   6.14048   6.14686
 Alpha virt. eigenvalues --    6.48862   6.49217   6.58639   6.75119   6.76647
 Alpha virt. eigenvalues --    6.88054   6.94757   7.01294   7.06600   7.23138
 Alpha virt. eigenvalues --    7.27758   7.42134   7.52651   7.78872   8.11125
 Alpha virt. eigenvalues --   23.90374  23.93628  24.45772  24.47482  24.47759
 Alpha virt. eigenvalues --   24.49210  24.51555  24.60834  24.71322  24.71756
 Alpha virt. eigenvalues --   24.73705  24.74279  25.18194  25.18321  49.99395
 Alpha virt. eigenvalues --   50.05311
  Beta  occ. eigenvalues --  -19.70715 -19.69250 -10.55785 -10.55601 -10.55147
  Beta  occ. eigenvalues --  -10.55092 -10.55026 -10.54923 -10.54882 -10.54856
  Beta  occ. eigenvalues --  -10.54773 -10.54665 -10.54588 -10.54487 -10.54353
  Beta  occ. eigenvalues --  -10.54321  -1.22412  -1.00968  -0.97121  -0.96412
  Beta  occ. eigenvalues --   -0.89934  -0.85913  -0.84953  -0.84430  -0.80590
  Beta  occ. eigenvalues --   -0.73535  -0.69720  -0.69116  -0.67202  -0.66870
  Beta  occ. eigenvalues --   -0.62077  -0.59250  -0.58555  -0.56570  -0.54174
  Beta  occ. eigenvalues --   -0.53380  -0.52663  -0.51878  -0.49637  -0.49521
  Beta  occ. eigenvalues --   -0.48996  -0.48266  -0.46945  -0.46051  -0.45225
  Beta  occ. eigenvalues --   -0.44191  -0.42405  -0.41254  -0.40663  -0.40569
  Beta  occ. eigenvalues --   -0.39261  -0.38170  -0.36483  -0.31608  -0.31092
  Beta  occ. eigenvalues --   -0.31034  -0.29678
  Beta virt. eigenvalues --   -0.10182   0.00202   0.00500   0.00866   0.01117
  Beta virt. eigenvalues --    0.01448   0.01638   0.02200   0.02518   0.02955
  Beta virt. eigenvalues --    0.03303   0.04213   0.04457   0.04611   0.05508
  Beta virt. eigenvalues --    0.06192   0.06490   0.06749   0.06986   0.08156
  Beta virt. eigenvalues --    0.08576   0.08952   0.09430   0.10021   0.10353
  Beta virt. eigenvalues --    0.11083   0.11573   0.12168   0.12694   0.13340
  Beta virt. eigenvalues --    0.13495   0.13844   0.14626   0.14749   0.15034
  Beta virt. eigenvalues --    0.15292   0.15520   0.16114   0.16235   0.16753
  Beta virt. eigenvalues --    0.17189   0.18025   0.18060   0.18341   0.18560
  Beta virt. eigenvalues --    0.18644   0.19091   0.19611   0.20164   0.20405
  Beta virt. eigenvalues --    0.21095   0.21372   0.21646   0.21739   0.22381
  Beta virt. eigenvalues --    0.22565   0.22919   0.23344   0.23411   0.23654
  Beta virt. eigenvalues --    0.23986   0.24194   0.24447   0.24679   0.25006
  Beta virt. eigenvalues --    0.25480   0.25666   0.26233   0.26415   0.26795
  Beta virt. eigenvalues --    0.27467   0.27563   0.27714   0.28920   0.29289
  Beta virt. eigenvalues --    0.29600   0.29897   0.30144   0.30525   0.31263
  Beta virt. eigenvalues --    0.31838   0.32769   0.33203   0.33990   0.34989
  Beta virt. eigenvalues --    0.35185   0.35261   0.36017   0.36426   0.37008
  Beta virt. eigenvalues --    0.38019   0.38746   0.39699   0.40206   0.41019
  Beta virt. eigenvalues --    0.41785   0.42908   0.45189   0.46208   0.49526
  Beta virt. eigenvalues --    0.50862   0.51926   0.52403   0.52691   0.53524
  Beta virt. eigenvalues --    0.54130   0.54779   0.55012   0.55151   0.55585
  Beta virt. eigenvalues --    0.55674   0.56063   0.56500   0.57273   0.57629
  Beta virt. eigenvalues --    0.58036   0.58466   0.59149   0.59298   0.60134
  Beta virt. eigenvalues --    0.61125   0.61309   0.61564   0.62356   0.63565
  Beta virt. eigenvalues --    0.63865   0.64760   0.65834   0.66020   0.66437
  Beta virt. eigenvalues --    0.66978   0.67118   0.67441   0.67483   0.67681
  Beta virt. eigenvalues --    0.68059   0.68295   0.68684   0.69122   0.69358
  Beta virt. eigenvalues --    0.69953   0.70842   0.71413   0.71853   0.72149
  Beta virt. eigenvalues --    0.72276   0.72766   0.73101   0.73237   0.73392
  Beta virt. eigenvalues --    0.74072   0.74382   0.74654   0.74831   0.75102
  Beta virt. eigenvalues --    0.76126   0.77789   0.77827   0.78761   0.79442
  Beta virt. eigenvalues --    0.79617   0.80648   0.80970   0.81872   0.82286
  Beta virt. eigenvalues --    0.82768   0.83676   0.83981   0.85062   0.85407
  Beta virt. eigenvalues --    0.85531   0.85957   0.87396   0.87616   0.89006
  Beta virt. eigenvalues --    0.89790   0.90958   0.91610   0.93544   0.94700
  Beta virt. eigenvalues --    0.96367   0.97775   0.98836   0.99749   1.00300
  Beta virt. eigenvalues --    1.01302   1.01656   1.02519   1.02928   1.04186
  Beta virt. eigenvalues --    1.05111   1.05577   1.06311   1.06820   1.07229
  Beta virt. eigenvalues --    1.08527   1.08961   1.09035   1.10631   1.11923
  Beta virt. eigenvalues --    1.12459   1.13383   1.14072   1.14581   1.15674
  Beta virt. eigenvalues --    1.15854   1.16698   1.17331   1.17868   1.18451
  Beta virt. eigenvalues --    1.19445   1.20436   1.20841   1.22393   1.22901
  Beta virt. eigenvalues --    1.23432   1.24732   1.25976   1.26511   1.27665
  Beta virt. eigenvalues --    1.28751   1.29507   1.30487   1.31015   1.31987
  Beta virt. eigenvalues --    1.32484   1.33106   1.33260   1.34337   1.34370
  Beta virt. eigenvalues --    1.34885   1.35436   1.36313   1.37602   1.37899
  Beta virt. eigenvalues --    1.38642   1.38746   1.39033   1.39466   1.41246
  Beta virt. eigenvalues --    1.41574   1.42006   1.42796   1.43378   1.44128
  Beta virt. eigenvalues --    1.45432   1.46812   1.46965   1.47987   1.48302
  Beta virt. eigenvalues --    1.49029   1.49490   1.49808   1.50695   1.51172
  Beta virt. eigenvalues --    1.51857   1.53096   1.53781   1.55083   1.56894
  Beta virt. eigenvalues --    1.57766   1.58470   1.59763   1.62465   1.64047
  Beta virt. eigenvalues --    1.64676   1.66181   1.67074   1.67970   1.69580
  Beta virt. eigenvalues --    1.71230   1.71251   1.72277   1.72498   1.73702
  Beta virt. eigenvalues --    1.74183   1.74959   1.75824   1.76275   1.77091
  Beta virt. eigenvalues --    1.78075   1.79169   1.80825   1.83994   1.84751
  Beta virt. eigenvalues --    1.86601   1.88514   1.91324   1.97911   1.98676
  Beta virt. eigenvalues --    2.00233   2.02763   2.03200   2.03677   2.04323
  Beta virt. eigenvalues --    2.05429   2.05910   2.07723   2.17153   2.20813
  Beta virt. eigenvalues --    2.23037   2.28420   2.29657   2.34698   2.46936
  Beta virt. eigenvalues --    2.48953   2.52369   2.53934   2.55282   2.57492
  Beta virt. eigenvalues --    2.58617   2.59013   2.61515   2.62590   2.64073
  Beta virt. eigenvalues --    2.66078   2.66349   2.67757   2.68578   2.69202
  Beta virt. eigenvalues --    2.69358   2.72687   2.72909   2.73842   2.74935
  Beta virt. eigenvalues --    2.75974   2.76253   2.77519   2.77624   2.77912
  Beta virt. eigenvalues --    2.78616   2.79265   2.79956   2.80440   2.81334
  Beta virt. eigenvalues --    2.81870   2.82518   2.82835   2.82966   2.83784
  Beta virt. eigenvalues --    2.84560   2.85285   2.85837   2.86181   2.87306
  Beta virt. eigenvalues --    2.87427   2.87822   2.88004   2.88873   2.89723
  Beta virt. eigenvalues --    2.90086   2.90836   2.91214   2.91410   2.91978
  Beta virt. eigenvalues --    2.93232   2.93451   2.94520   2.95615   2.96514
  Beta virt. eigenvalues --    2.97185   2.98391   2.99222   3.00258   3.01964
  Beta virt. eigenvalues --    3.03033   3.05204   3.07255   3.07988   3.10360
  Beta virt. eigenvalues --    3.11561   3.11919   3.13301   3.13682   3.14460
  Beta virt. eigenvalues --    3.15081   3.15398   3.15967   3.17227   3.17836
  Beta virt. eigenvalues --    3.18433   3.19289   3.19816   3.20117   3.21144
  Beta virt. eigenvalues --    3.21609   3.22008   3.22457   3.23003   3.24023
  Beta virt. eigenvalues --    3.25538   3.26423   3.28787   3.29152   3.29729
  Beta virt. eigenvalues --    3.30087   3.30987   3.31213   3.32482   3.33491
  Beta virt. eigenvalues --    3.34673   3.35060   3.35748   3.36677   3.37130
  Beta virt. eigenvalues --    3.38572   3.38861   3.40467   3.40948   3.42013
  Beta virt. eigenvalues --    3.42192   3.42375   3.43444   3.44347   3.44795
  Beta virt. eigenvalues --    3.44955   3.45682   3.46639   3.47624   3.48574
  Beta virt. eigenvalues --    3.49422   3.49605   3.50676   3.52238   3.53010
  Beta virt. eigenvalues --    3.54834   3.56490   3.57247   3.58063   3.58972
  Beta virt. eigenvalues --    3.60021   3.60389   3.61850   3.63143   3.65170
  Beta virt. eigenvalues --    3.67206   3.67646   3.68331   3.70460   3.71217
  Beta virt. eigenvalues --    3.72128   3.72232   3.72446   3.73354   3.74075
  Beta virt. eigenvalues --    3.76644   3.77153   3.78803   3.79025   3.79363
  Beta virt. eigenvalues --    3.80112   3.80620   3.81785   3.82283   3.82728
  Beta virt. eigenvalues --    3.83009   3.83974   3.85622   3.87355   3.88910
  Beta virt. eigenvalues --    3.89389   3.89604   3.89977   3.91160   3.91976
  Beta virt. eigenvalues --    3.93934   3.94763   3.97479   3.98271   3.98694
  Beta virt. eigenvalues --    3.99496   4.01695   4.02406   4.04958   4.05686
  Beta virt. eigenvalues --    4.06666   4.07226   4.08046   4.08754   4.09497
  Beta virt. eigenvalues --    4.11135   4.11568   4.11871   4.12839   4.13206
  Beta virt. eigenvalues --    4.14609   4.16366   4.16783   4.18674   4.20747
  Beta virt. eigenvalues --    4.22874   4.24486   4.25506   4.26664   4.28111
  Beta virt. eigenvalues --    4.28794   4.29646   4.30630   4.32563   4.34051
  Beta virt. eigenvalues --    4.35594   4.36589   4.36827   4.37349   4.38210
  Beta virt. eigenvalues --    4.39093   4.39668   4.40002   4.40385   4.42418
  Beta virt. eigenvalues --    4.43496   4.44207   4.44920   4.45529   4.45930
  Beta virt. eigenvalues --    4.46381   4.47264   4.48307   4.49459   4.50181
  Beta virt. eigenvalues --    4.50750   4.52811   4.56334   4.56869   4.57682
  Beta virt. eigenvalues --    4.59223   4.62092   4.62483   4.63396   4.65717
  Beta virt. eigenvalues --    4.66203   4.67375   4.68840   4.69386   4.71817
  Beta virt. eigenvalues --    4.72826   4.75436   4.75942   4.77235   4.77533
  Beta virt. eigenvalues --    4.79925   4.82114   4.89577   4.91442   4.92827
  Beta virt. eigenvalues --    4.95526   4.97177   5.00309   5.02934   5.04413
  Beta virt. eigenvalues --    5.04878   5.05431   5.06345   5.06947   5.07789
  Beta virt. eigenvalues --    5.08024   5.10751   5.11812   5.12395   5.17457
  Beta virt. eigenvalues --    5.19498   5.20664   5.22195   5.25631   5.26014
  Beta virt. eigenvalues --    5.31477   5.35746   5.37181   5.37306   5.39176
  Beta virt. eigenvalues --    5.43599   5.46476   5.48707   5.50523   5.55962
  Beta virt. eigenvalues --    5.62620   5.65929   5.67466   5.67821   5.69848
  Beta virt. eigenvalues --    5.70021   5.73634   5.73966   5.75103   5.75557
  Beta virt. eigenvalues --    5.79466   5.80715   5.90034   6.00489   6.14085
  Beta virt. eigenvalues --    6.14776   6.48866   6.49248   6.59325   6.79950
  Beta virt. eigenvalues --    6.81440   6.88698   6.96369   7.03888   7.08311
  Beta virt. eigenvalues --    7.23044   7.29222   7.42824   7.57574   7.80028
  Beta virt. eigenvalues --    8.12294  23.90377  23.93629  24.45774  24.47483
  Beta virt. eigenvalues --   24.47763  24.49223  24.51555  24.61113  24.71325
  Beta virt. eigenvalues --   24.71759  24.73704  24.74290  25.18195  25.18327
  Beta virt. eigenvalues --   49.99246  50.04759
          Condensed to atoms (all electrons):
               1          2          3          4          5          6
     1  C    6.383135   0.138384   0.581527  -0.536465  -0.968889   1.165841
     2  C    0.138384   5.396932  -0.035159   0.675416   0.450179  -0.902696
     3  C    0.581527  -0.035159   6.793164  -1.938326  -0.481552   1.595285
     4  C   -0.536465   0.675416  -1.938326  11.760957  -1.721741  -3.168500
     5  C   -0.968889   0.450179  -0.481552  -1.721741   9.520791  -1.347621
     6  C    1.165841  -0.902696   1.595285  -3.168500  -1.347621  11.392969
     7  H    0.060389  -0.023805   0.013157  -0.034985   0.252977   0.065393
     8  H    0.299109   0.045971  -0.011544  -0.005729   0.037577   0.000858
     9  H    0.025204   0.334495   0.028229  -0.019007  -0.012645   0.018143
    10  H   -0.012377   0.050847   0.302327   0.040100  -0.001642  -0.010654
    11  H   -0.004124  -0.007115   0.021635   0.279755   0.016229   0.054157
    12  C   -0.840901   0.022935  -0.602816   0.834853   0.367180  -4.051790
    13  C   -0.010582   0.046100  -0.028925  -0.088228   0.249091   0.513749
    14  H   -0.000484   0.002284  -0.000132   0.031293  -0.001697  -0.018384
    15  H    0.003027   0.000235   0.015127   0.017081  -0.028157  -0.035994
    16  C    0.094823  -0.015509   0.052961   0.247084  -0.196944  -0.265143
    17  H   -0.009847   0.004392   0.009685   0.046355  -0.003149  -0.075893
    18  H   -0.010665   0.002477  -0.004488   0.020042   0.012457  -0.049690
    19  C   -0.031575   0.000901  -0.002227   0.233683  -0.317504  -0.137553
    20  C   -0.000531   0.001635  -0.003881  -0.225162   0.263817   0.205941
    21  C    0.001876  -0.000088   0.002509   0.011154  -0.014190   0.086315
    22  H    0.000374   0.000002   0.000145  -0.000154  -0.001629  -0.002137
    23  C   -0.001789   0.000253  -0.000367   0.007084  -0.007031  -0.004600
    24  C    0.007260  -0.001340   0.002002  -0.112649   0.063209   0.140125
    25  H   -0.000002  -0.000000   0.000005   0.000039  -0.000038  -0.000138
    26  H   -0.000142   0.000097  -0.000626   0.000319   0.000728  -0.006500
    27  H   -0.000003   0.000000  -0.000002   0.000001  -0.000032   0.000003
    28  H    0.000000  -0.000000  -0.000000  -0.000007   0.000003  -0.000017
    29  O    0.017205  -0.008442  -0.015511   0.000219  -0.047428   0.073339
    30  O   -0.001155  -0.001781  -0.034472   0.040524   0.007466   0.016543
    31  H   -0.002967   0.003305  -0.001802   0.022164   0.005506  -0.032125
               7          8          9         10         11         12
     1  C    0.060389   0.299109   0.025204  -0.012377  -0.004124  -0.840901
     2  C   -0.023805   0.045971   0.334495   0.050847  -0.007115   0.022935
     3  C    0.013157  -0.011544   0.028229   0.302327   0.021635  -0.602816
     4  C   -0.034985  -0.005729  -0.019007   0.040100   0.279755   0.834853
     5  C    0.252977   0.037577  -0.012645  -0.001642   0.016229   0.367180
     6  C    0.065393   0.000858   0.018143  -0.010654   0.054157  -4.051790
     7  H    0.473653  -0.006848  -0.000084   0.000041  -0.000100   0.036614
     8  H   -0.006848   0.488229  -0.006684  -0.000065   0.000058   0.012263
     9  H   -0.000084  -0.006684   0.483268  -0.006728  -0.000087   0.006392
    10  H    0.000041  -0.000065  -0.006728   0.486811  -0.006312   0.009778
    11  H   -0.000100   0.000058  -0.000087  -0.006312   0.453835   0.008574
    12  C    0.036614   0.012263   0.006392   0.009778   0.008574  11.507296
    13  C    0.012360   0.000048  -0.000577   0.000084   0.015323  -2.338712
    14  H   -0.002857  -0.000016  -0.000001   0.000009   0.000192   0.347467
    15  H    0.000220   0.000005  -0.000001  -0.000026  -0.000634   0.399613
    16  C   -0.003181  -0.000195   0.000009  -0.000140  -0.007882   1.019509
    17  H    0.000079   0.000008   0.000001  -0.000006   0.002083  -0.014442
    18  H   -0.000974   0.000011   0.000002  -0.000001  -0.000048   0.017619
    19  C   -0.001027   0.000054  -0.000001  -0.000000   0.000082   0.236320
    20  C    0.000070  -0.000040  -0.000000  -0.000056  -0.000138  -0.289726
    21  C   -0.000481  -0.000003  -0.000001  -0.000003  -0.000108  -0.019374
    22  H    0.000081  -0.000000   0.000000   0.000000   0.000001   0.010736
    23  C    0.000036   0.000000  -0.000000   0.000000   0.000028   0.007466
    24  C    0.000035  -0.000003   0.000001  -0.000003   0.000195  -0.064038
    25  H    0.000000   0.000000  -0.000000   0.000000   0.000000  -0.000042
    26  H   -0.000000   0.000000   0.000000   0.000000  -0.000006   0.011648
    27  H   -0.000000   0.000000  -0.000000   0.000000   0.000000  -0.000454
    28  H    0.000000  -0.000000   0.000000  -0.000000   0.000000  -0.000358
    29  O   -0.000145  -0.000008   0.000006   0.000066  -0.005188   0.004589
    30  O   -0.000018  -0.000000   0.000003  -0.000089  -0.001148  -0.017085
    31  H    0.000004   0.000001  -0.000000  -0.000015  -0.002296   0.019374
              13         14         15         16         17         18
     1  C   -0.010582  -0.000484   0.003027   0.094823  -0.009847  -0.010665
     2  C    0.046100   0.002284   0.000235  -0.015509   0.004392   0.002477
     3  C   -0.028925  -0.000132   0.015127   0.052961   0.009685  -0.004488
     4  C   -0.088228   0.031293   0.017081   0.247084   0.046355   0.020042
     5  C    0.249091  -0.001697  -0.028157  -0.196944  -0.003149   0.012457
     6  C    0.513749  -0.018384  -0.035994  -0.265143  -0.075893  -0.049690
     7  H    0.012360  -0.002857   0.000220  -0.003181   0.000079  -0.000974
     8  H    0.000048  -0.000016   0.000005  -0.000195   0.000008   0.000011
     9  H   -0.000577  -0.000001  -0.000001   0.000009   0.000001   0.000002
    10  H    0.000084   0.000009  -0.000026  -0.000140  -0.000006  -0.000001
    11  H    0.015323   0.000192  -0.000634  -0.007882   0.002083  -0.000048
    12  C   -2.338712   0.347467   0.399613   1.019509  -0.014442   0.017619
    13  C   14.045427   0.068441   0.018620  -6.332167   0.132270   0.444372
    14  H    0.068441   0.450819  -0.013807  -0.089869   0.003333  -0.005389
    15  H    0.018620  -0.013807   0.445599  -0.039910   0.002558   0.001779
    16  C   -6.332167  -0.089869  -0.039910  13.640037  -0.076860  -0.095073
    17  H    0.132270   0.003333   0.002558  -0.076860   0.446161  -0.000026
    18  H    0.444372  -0.005389   0.001779  -0.095073  -0.000026   0.428776
    19  C    0.827129   0.014918   0.007395  -2.677480  -0.017118   0.054564
    20  C    1.133264   0.025283   0.015540  -1.413420   0.045635  -0.032751
    21  C   -1.069072  -0.006965  -0.005931   1.306949  -0.003968   0.003501
    22  H    0.028499  -0.000390  -0.000038   0.006890   0.001242  -0.002188
    23  C    0.098538   0.004035   0.001829  -0.909994   0.006453   0.000772
    24  C   -0.666910  -0.011250  -0.004504   0.683870   0.023862   0.001615
    25  H    0.010143   0.000002   0.000007  -0.003437   0.000007   0.000006
    26  H    0.027765  -0.000101  -0.000251   0.042384   0.002538   0.000249
    27  H    0.010460   0.000017   0.000001   0.006092  -0.000001  -0.000025
    28  H    0.005691   0.000001   0.000002   0.016265  -0.000004  -0.000001
    29  O    0.165090  -0.001933  -0.004226   0.021024  -0.226317  -0.003524
    30  O    0.034017   0.000097  -0.002701  -0.057350   0.019464  -0.001268
    31  H   -0.015446  -0.000009   0.000008   0.027169   0.000793   0.000194
              19         20         21         22         23         24
     1  C   -0.031575  -0.000531   0.001876   0.000374  -0.001789   0.007260
     2  C    0.000901   0.001635  -0.000088   0.000002   0.000253  -0.001340
     3  C   -0.002227  -0.003881   0.002509   0.000145  -0.000367   0.002002
     4  C    0.233683  -0.225162   0.011154  -0.000154   0.007084  -0.112649
     5  C   -0.317504   0.263817  -0.014190  -0.001629  -0.007031   0.063209
     6  C   -0.137553   0.205941   0.086315  -0.002137  -0.004600   0.140125
     7  H   -0.001027   0.000070  -0.000481   0.000081   0.000036   0.000035
     8  H    0.000054  -0.000040  -0.000003  -0.000000   0.000000  -0.000003
     9  H   -0.000001  -0.000000  -0.000001   0.000000  -0.000000   0.000001
    10  H   -0.000000  -0.000056  -0.000003   0.000000   0.000000  -0.000003
    11  H    0.000082  -0.000138  -0.000108   0.000001   0.000028   0.000195
    12  C    0.236320  -0.289726  -0.019374   0.010736   0.007466  -0.064038
    13  C    0.827129   1.133264  -1.069072   0.028499   0.098538  -0.666910
    14  H    0.014918   0.025283  -0.006965  -0.000390   0.004035  -0.011250
    15  H    0.007395   0.015540  -0.005931  -0.000038   0.001829  -0.004504
    16  C   -2.677480  -1.413420   1.306949   0.006890  -0.909994   0.683870
    17  H   -0.017118   0.045635  -0.003968   0.001242   0.006453   0.023862
    18  H    0.054564  -0.032751   0.003501  -0.002188   0.000772   0.001615
    19  C   11.716921  -2.534501  -1.323945   0.327202   0.717079  -0.982517
    20  C   -2.534501  10.698699  -0.381560  -0.032017   0.176216  -1.921640
    21  C   -1.323945  -0.381560   6.651810   0.046726   0.105533   0.738675
    22  H    0.327202  -0.032017   0.046726   0.478625  -0.013882   0.006064
    23  C    0.717079   0.176216   0.105533  -0.013882   5.430396   0.096348
    24  C   -0.982517  -1.921640   0.738675   0.006064   0.096348   8.149425
    25  H    0.009835   0.037357  -0.019533   0.000046   0.050531   0.292995
    26  H   -0.012128   0.305325   0.004406  -0.000114  -0.014743   0.015490
    27  H    0.025049   0.008269   0.298792  -0.007030   0.047871  -0.018169
    28  H   -0.020036  -0.012068   0.029235  -0.000095   0.339715   0.022165
    29  O   -0.002930  -0.100982  -0.001911  -0.000416  -0.006416   0.002149
    30  O    0.010851   0.045428  -0.000704  -0.000018   0.002040   0.016355
    31  H    0.005912  -0.020442  -0.000049  -0.000000   0.000136  -0.003636
              25         26         27         28         29         30
     1  C   -0.000002  -0.000142  -0.000003   0.000000   0.017205  -0.001155
     2  C   -0.000000   0.000097   0.000000  -0.000000  -0.008442  -0.001781
     3  C    0.000005  -0.000626  -0.000002  -0.000000  -0.015511  -0.034472
     4  C    0.000039   0.000319   0.000001  -0.000007   0.000219   0.040524
     5  C   -0.000038   0.000728  -0.000032   0.000003  -0.047428   0.007466
     6  C   -0.000138  -0.006500   0.000003  -0.000017   0.073339   0.016543
     7  H    0.000000  -0.000000  -0.000000   0.000000  -0.000145  -0.000018
     8  H    0.000000   0.000000   0.000000  -0.000000  -0.000008  -0.000000
     9  H   -0.000000   0.000000  -0.000000   0.000000   0.000006   0.000003
    10  H    0.000000   0.000000   0.000000  -0.000000   0.000066  -0.000089
    11  H    0.000000  -0.000006   0.000000   0.000000  -0.005188  -0.001148
    12  C   -0.000042   0.011648  -0.000454  -0.000358   0.004589  -0.017085
    13  C    0.010143   0.027765   0.010460   0.005691   0.165090   0.034017
    14  H    0.000002  -0.000101   0.000017   0.000001  -0.001933   0.000097
    15  H    0.000007  -0.000251   0.000001   0.000002  -0.004226  -0.002701
    16  C   -0.003437   0.042384   0.006092   0.016265   0.021024  -0.057350
    17  H    0.000007   0.002538  -0.000001  -0.000004  -0.226317   0.019464
    18  H    0.000006   0.000249  -0.000025  -0.000001  -0.003524  -0.001268
    19  C    0.009835  -0.012128   0.025049  -0.020036  -0.002930   0.010851
    20  C    0.037357   0.305325   0.008269  -0.012068  -0.100982   0.045428
    21  C   -0.019533   0.004406   0.298792   0.029235  -0.001911  -0.000704
    22  H    0.000046  -0.000114  -0.007030  -0.000095  -0.000416  -0.000018
    23  C    0.050531  -0.014743   0.047871   0.339715  -0.006416   0.002040
    24  C    0.292995   0.015490  -0.018169   0.022165   0.002149   0.016355
    25  H    0.488635  -0.006575  -0.000062  -0.006651  -0.000029  -0.000001
    26  H   -0.006575   0.459776   0.000042  -0.000111  -0.004715   0.000140
    27  H   -0.000062   0.000042   0.489780  -0.006666  -0.000000   0.000000
    28  H   -0.006651  -0.000111  -0.006666   0.484229   0.000006  -0.000000
    29  O   -0.000029  -0.004715  -0.000000   0.000006   8.431912   0.049697
    30  O   -0.000001   0.000140   0.000000  -0.000000   0.049697   7.837169
    31  H    0.000000   0.000151   0.000000  -0.000000  -0.029492   0.230696
              31
     1  C   -0.002967
     2  C    0.003305
     3  C   -0.001802
     4  C    0.022164
     5  C    0.005506
     6  C   -0.032125
     7  H    0.000004
     8  H    0.000001
     9  H   -0.000000
    10  H   -0.000015
    11  H   -0.002296
    12  C    0.019374
    13  C   -0.015446
    14  H   -0.000009
    15  H    0.000008
    16  C    0.027169
    17  H    0.000793
    18  H    0.000194
    19  C    0.005912
    20  C   -0.020442
    21  C   -0.000049
    22  H   -0.000000
    23  C    0.000136
    24  C   -0.003636
    25  H    0.000000
    26  H    0.000151
    27  H    0.000000
    28  H   -0.000000
    29  O   -0.029492
    30  O    0.230696
    31  H    0.522781
          Atomic-Atomic Spin Densities.
               1          2          3          4          5          6
     1  C   -0.048066   0.009811  -0.047582   0.075020   0.068872  -0.089322
     2  C    0.009811  -0.000956   0.009720  -0.017308  -0.013088   0.018783
     3  C   -0.047582   0.009720  -0.133025   0.192148   0.067150  -0.139112
     4  C    0.075020  -0.017308   0.192148  -0.216875  -0.155399   0.182847
     5  C    0.068872  -0.013088   0.067150  -0.155399  -0.037743   0.142197
     6  C   -0.089322   0.018783  -0.139112   0.182847   0.142197  -0.253485
     7  H   -0.000467   0.000440  -0.000521   0.000097   0.003118  -0.003242
     8  H    0.000440  -0.000195   0.000172  -0.000284  -0.000416   0.000443
     9  H   -0.000343  -0.000148  -0.000214   0.000493   0.000280  -0.000129
    10  H    0.000433  -0.000234   0.001783  -0.002198  -0.000612   0.001135
    11  H   -0.000559   0.000914  -0.003272   0.011360   0.000136  -0.007181
    12  C    0.039411  -0.009225   0.075764  -0.083552  -0.099815   0.192094
    13  C    0.001120  -0.000317  -0.004499  -0.047574   0.044241   0.012595
    14  H    0.002215  -0.000357   0.000935  -0.000452  -0.007501   0.011660
    15  H   -0.001819   0.000650  -0.004537   0.005667   0.006645  -0.016703
    16  C   -0.009283   0.001118  -0.001114   0.062663  -0.033511  -0.026145
    17  H    0.003609  -0.000315  -0.001884   0.000408  -0.001694   0.024105
    18  H   -0.001531   0.000173  -0.000614   0.001322   0.001902  -0.009433
    19  C    0.006620   0.000360   0.001166  -0.000659  -0.005878   0.009394
    20  C   -0.004708   0.000286  -0.003426  -0.000400   0.007291  -0.007677
    21  C    0.000147   0.000221  -0.000676  -0.001270   0.005036  -0.010085
    22  H    0.000007   0.000009  -0.000027   0.000017   0.000274  -0.000519
    23  C    0.000148  -0.000008   0.000106   0.000278  -0.000348   0.000497
    24  C   -0.001405   0.000214  -0.002672   0.005197   0.001059  -0.016122
    25  H   -0.000000   0.000000  -0.000000  -0.000000   0.000001  -0.000016
    26  H    0.000015  -0.000003   0.000032   0.000021  -0.000033   0.001063
    27  H    0.000002  -0.000000   0.000000   0.000002  -0.000005   0.000037
    28  H   -0.000000   0.000000  -0.000000  -0.000000  -0.000000  -0.000003
    29  O   -0.003282   0.000446   0.003506  -0.018514   0.007810  -0.026263
    30  O    0.001453  -0.000441   0.008702   0.004931  -0.008013   0.010594
    31  H   -0.000172   0.000156  -0.001884   0.003131   0.000327  -0.001958
               7          8          9         10         11         12
     1  C   -0.000467   0.000440  -0.000343   0.000433  -0.000559   0.039411
     2  C    0.000440  -0.000195  -0.000148  -0.000234   0.000914  -0.009225
     3  C   -0.000521   0.000172  -0.000214   0.001783  -0.003272   0.075764
     4  C    0.000097  -0.000284   0.000493  -0.002198   0.011360  -0.083552
     5  C    0.003118  -0.000416   0.000280  -0.000612   0.000136  -0.099815
[...]
    D6       -3.13522   0.00021   0.02329   0.00000   0.02348  -3.11174
    D7       -3.13707  -0.00031   0.00492   0.00000   0.00491  -3.13216
    D8       -0.00042   0.00022   0.00569   0.00000   0.00589   0.00547
    D9        0.00388  -0.00004  -0.01391   0.00000  -0.01384  -0.00996
   D10       -3.13478  -0.00032  -0.02530   0.00000  -0.02506   3.12335
   D11        3.13793   0.00033  -0.00823   0.00000  -0.00828   3.12965
   D12       -0.00073   0.00005  -0.01962   0.00000  -0.01950  -0.02023
   D13        0.00954  -0.00046   0.01004   0.00000   0.01003   0.01957
   D14       -3.13436  -0.00040  -0.06557   0.00000  -0.06469   3.08413
   D15       -3.13497  -0.00017   0.02142   0.00000   0.02116  -3.11382
   D16        0.00431  -0.00012  -0.05419   0.00000  -0.05356  -0.04926
   D17       -0.01233   0.00056   0.00975   0.00000   0.00965  -0.00269
   D18        3.12125  -0.00011  -0.01464   0.00000  -0.01426   3.10700
   D19        3.13157   0.00051   0.08477   0.00000   0.08522  -3.06639
   D20       -0.01803  -0.00017   0.06039   0.00000   0.06132   0.04329
   D21        0.00193  -0.00018  -0.02597   0.00000  -0.02588  -0.02395
   D22       -3.13158   0.00053  -0.00153   0.00000  -0.00078  -3.13236
   D23       -3.13470  -0.00071  -0.02668   0.00000  -0.02682   3.12167
   D24        0.01498  -0.00001  -0.00224   0.00000  -0.00171   0.01326
   D25       -2.46341  -0.00013  -0.57304   0.00000  -0.57356  -3.03696
   D26        1.67096   0.00042  -0.65254   0.00000  -0.65163   1.01933
   D27       -0.35230  -0.00025  -0.62363   0.00000  -0.62402  -0.97633
   D28        0.66992  -0.00085  -0.59815   0.00000  -0.59867   0.07125
   D29       -1.47890  -0.00029  -0.67765   0.00000  -0.67674  -2.15564
   D30        2.78102  -0.00096  -0.64874   0.00000  -0.64914   2.13188
   D31        2.92954  -0.00208  -0.24917   0.00000  -0.25024   2.67930
   D32        0.81981  -0.00389  -0.20390   0.00000  -0.20464   0.61517
   D33       -1.25581  -0.00106  -0.23585   0.00000  -0.23701  -1.49283
   D34       -1.20703  -0.00032  -0.21670   0.00000  -0.21551  -1.42254
   D35        2.96643  -0.00213  -0.17144   0.00000  -0.16991   2.79652
   D36        0.89080   0.00071  -0.20339   0.00000  -0.20228   0.68852
   D37        0.80768  -0.00003  -0.21447   0.00000  -0.21486   0.59281
   D38       -1.30205  -0.00184  -0.16921   0.00000  -0.16927  -1.47132
   D39        2.90551   0.00100  -0.20116   0.00000  -0.20164   2.70387
   D40        1.46664   0.00280  -0.15694   0.00000  -0.15677   1.30987
   D41       -1.62963   0.00273  -0.15444   0.00000  -0.15428  -1.78391
   D42       -2.70826  -0.00149  -0.19128   0.00000  -0.19132  -2.89957
   D43        0.47866  -0.00157  -0.18878   0.00000  -0.18883   0.28983
   D44       -0.61923  -0.00181  -0.16532   0.00000  -0.16545  -0.78468
   D45        2.56768  -0.00189  -0.16282   0.00000  -0.16296   2.40473
   D46        0.32173  -0.00135  -0.12806   0.00000  -0.12559   0.19614
   D47       -1.78642   0.00031  -0.04487   0.00000  -0.04665  -1.83306
   D48        2.34991  -0.00337  -0.13570   0.00000  -0.13640   2.21351
   D49       -3.08870  -0.00013   0.01501   0.00000   0.01499  -3.07371
   D50        0.05202  -0.00004   0.00664   0.00000   0.00660   0.05862
   D51        0.00829  -0.00008   0.01280   0.00000   0.01281   0.02110
   D52       -3.13417   0.00000   0.00443   0.00000   0.00442  -3.12975
   D53        3.09040   0.00018  -0.01246   0.00000  -0.01249   3.07791
   D54       -0.05931   0.00011   0.00002   0.00000  -0.00002  -0.05934
   D55       -0.00703   0.00009  -0.00961   0.00000  -0.00961  -0.01665
   D56        3.12644   0.00001   0.00288   0.00000   0.00286   3.12929
   D57       -0.00300   0.00004  -0.00994   0.00000  -0.00993  -0.01294
   D58       -3.13725  -0.00006   0.00547   0.00000   0.00553  -3.13172
   D59        3.13946  -0.00005  -0.00153   0.00000  -0.00158   3.13788
   D60        0.00522  -0.00014   0.01388   0.00000   0.01388   0.01909
   D61        0.00049  -0.00004   0.00353   0.00000   0.00352   0.00400
   D62        3.13364   0.00001  -0.00640   0.00000  -0.00637   3.12727
   D63       -3.13288   0.00004  -0.00907   0.00000  -0.00912   3.14118
   D64        0.00027   0.00009  -0.01900   0.00000  -0.01901  -0.01874
   D65       -0.00369   0.00001   0.00360   0.00000   0.00361  -0.00008
   D66       -3.13781  -0.00006   0.01244   0.00000   0.01243  -3.12538
   D67        3.13055   0.00010  -0.01183   0.00000  -0.01179   3.11876
   D68       -0.00357   0.00004  -0.00298   0.00000  -0.00297  -0.00654
   D69        0.00493  -0.00001  -0.00043   0.00000  -0.00043   0.00450
   D70       -3.12819  -0.00006   0.00954   0.00000   0.00955  -3.11864
   D71        3.13904   0.00006  -0.00929   0.00000  -0.00930   3.12974
   D72        0.00592   0.00001   0.00068   0.00000   0.00068   0.00661
   D73       -1.04960   0.00054   0.83997   0.00000   0.83997  -0.20963
         Item               Value     Threshold  Converged?
 Maximum Force            0.022609     0.002500     NO 
 RMS     Force            0.002455     0.001667     NO 
 Maximum Displacement     2.465103     0.010000     NO 
 RMS     Displacement     0.523195     0.006667     NO 
 Predicted change in Energy=-6.484766D-04
 GradGradGradGradGradGradGradGradGradGradGradGradGradGradGradGradGradGrad

                          Input orientation:                          
 ---------------------------------------------------------------------
 Center     Atomic      Atomic             Coordinates (Angstroms)
 Number     Number       Type             X           Y           Z
 ---------------------------------------------------------------------
      1          6           0       -6.577690   -1.225614    0.957850
      2          6           0       -7.350416   -1.488359   -0.172792
      3          6           0       -6.839003   -1.208623   -1.437173
      4          6           0       -5.562792   -0.656403   -1.570783
      5          6           0       -5.296772   -0.705997    0.824613
      6          6           0       -4.771801   -0.398251   -0.442692
      7          1           0       -4.708675   -0.537781    1.715328
      8          1           0       -6.959090   -1.445020    1.948226
      9          1           0       -8.343622   -1.905943   -0.068954
     10          1           0       -7.421197   -1.423253   -2.322994
     11          1           0       -5.160197   -0.495564   -2.567100
     12          6           0       -3.380773    0.157249   -0.637046
     13          6           0       -2.503611    0.282858    0.659173
     14          1           0       -3.472026    1.099416   -1.181304
     15          1           0       -2.833049   -0.521016   -1.293468
     16          6           0       -1.037875    0.213031    0.341243
     17          1           0       -2.733638   -0.540169    1.305988
     18          1           0       -2.732373    1.228814    1.132694
     19          6           0       -0.390785    1.301462   -0.238718
     20          6           0       -0.311590   -0.955821    0.566287
     21          6           0        0.946616    1.218222   -0.610301
     22          1           0       -0.935296    2.223816   -0.412040
     23          6           0        1.658712    0.044968   -0.390741
     24          6           0        1.026171   -1.041602    0.201414
     25          1           0        1.576659   -1.953848    0.396876
     26          1           0       -0.810081   -1.801780    1.028677
     27          1           0        1.441487    2.074221   -1.052003
     28          1           0        2.703909   -0.014225   -0.666472
     29          8           0       -3.587964   -2.769288    2.251039
     30          8           0       -4.017799   -2.812366    1.078771
     31          1           0       -3.912129   -1.920164    0.682461
 ---------------------------------------------------------------------
                    Distance matrix (angstroms):
                    1          2          3          4          5
     1  C    0.000000
     2  C    1.394451   0.000000
     3  C    2.409297   1.392284   0.000000
     4  C    2.783524   2.417049   1.396965   0.000000
     5  C    1.388707   2.413371   2.783305   2.410632   0.000000
     6  C    2.430490   2.812550   2.432904   1.401749   1.405831
     7  H    2.130752   3.383399   3.863494   3.397368   1.080522
     8  H    1.083720   2.157251   3.395767   3.867168   2.138215
     9  H    2.153066   1.082413   2.149921   3.398508   3.394353
    10  H    3.393303   2.152352   1.081524   2.146520   3.864591
    11  H    3.868790   3.393436   2.145594   1.086554   3.400978
    12  C    3.830964   4.322224   3.803310   2.509004   2.559823
    13  C    4.354632   5.226939   5.041310   3.900449   2.967651
    14  H    4.430225   4.770281   4.090116   2.757879   3.257747
    15  H    4.425746   4.753763   4.067077   2.747131   3.254291
    16  C    5.756688   6.557982   6.231930   4.988650   4.383658
    17  H    3.920174   4.939685   4.982548   4.036512   2.613211
    18  H    4.565222   5.514857   5.423074   4.344434   3.227158
    19  C    6.789380   7.498260   7.022559   5.688347   5.406410
    20  C    6.284116   7.097528   6.832634   5.677310   4.998118
    21  C    8.065148   8.738291   8.196899   6.841720   6.688907
    22  H    6.753649   7.415608   6.905526   5.572438   5.397739
    23  C    8.442239   9.141279   8.653189   7.350819   7.100689
    24  C    7.643609   8.396834   8.035784   6.833995   6.362437
    25  H    8.205999   8.957335   8.645372   7.518431   6.998866
    26  H    5.796749   6.657157   6.540654   5.536908   4.623070
    27  H    8.901439   9.526937   8.915824   7.535606   7.526980
    28  H    9.500209  10.173802   9.648199   8.340774   8.167789
    29  O    3.604681   4.655296   5.158279   4.792760   3.035108
    30  O    3.014207   3.798123   4.106234   3.749042   2.477329
    31  H    2.768294   3.569276   3.683169   3.065760   1.847064
                    6          7          8          9         10
     6  C    0.000000
     7  H    2.163447   0.000000
     8  H    3.405355   2.437558   0.000000
     9  H    3.894961   4.274151   2.489657   0.000000
    10  H    3.406680   4.944682   4.296200   2.482852   0.000000
    11  H    2.161812   4.306372   4.952338   4.285335   2.456077
    12  C    1.510402   2.789275   4.696302   5.404569   4.654614
    13  C    2.612030   2.578996   4.949598   6.279073   5.998899
    14  H    2.116122   3.549675   5.331766   5.831119   4.823201
    15  H    2.120766   3.545575   5.327905   5.812389   4.788011
    16  C    3.863990   3.990815   6.355495   7.617890   7.107909
    17  H    2.689261   2.017011   4.368715   5.935295   5.993542
    18  H    3.047696   2.714055   5.067506   6.538867   6.400025
    19  C    4.703608   5.083826   7.447719   8.576939   7.822721
    20  C    4.606778   4.563925   6.807227   8.112941   7.688495
    21  C    5.944860   6.361950   8.725772   9.816414   8.940414
    22  H    4.647036   5.137169   7.437561   8.488575   7.682432
    23  C    6.445978   6.731920   9.053030  10.195896   9.398618
    24  C    5.869007   5.952666   8.184039   9.413459   8.824756
    25  H    6.589969   6.576396   8.690489   9.931327   9.414915
    26  H    4.453094   4.155505   6.227613   7.613796   7.421849
    27  H    6.714858   7.232231   9.589375  10.609262   9.612226
    28  H    7.488911   7.803428  10.112239  11.224240  10.356022
    29  O    3.778818   2.553938   3.634539   5.361345   6.117782
    30  O    2.951494   2.460945   3.358092   4.566358   5.008468
    31  H    2.078755   1.900600   3.333451   4.494770   4.646852
                   11         12         13         14         15
    11  H    0.000000
    12  C    2.705111   0.000000
    13  C    4.251145   1.570151   0.000000
    14  H    2.704499   1.091890   2.234268   0.000000
    15  H    2.652999   1.091299   2.137182   1.745472   0.000000
    16  C    5.094517   2.539553   1.501445   3.004816   2.536484
    17  H    4.570666   2.163459   1.071753   3.069215   2.601426
    18  H    4.749346   2.168100   1.082307   2.432780   2.993043
    19  C    5.603388   3.226130   2.511532   3.228520   3.224682
    20  C    5.791282   3.479486   2.519506   4.155290   3.163148
    21  C    6.637717   4.455634   3.793485   4.456967   4.216341
    22  H    5.467093   3.209624   2.715590   2.879417   3.451447
    23  C    7.178178   5.046750   4.299284   5.297294   4.616403
    24  C    6.799557   4.643427   3.797775   5.170072   4.171242
    25  H    7.503131   5.486516   4.660499   6.107561   4.935159
    26  H    5.793042   3.636054   2.711142   4.515187   3.335434
    27  H    7.244415   5.205877   4.658422   5.010945   5.006517
    28  H    8.104828   6.087169   5.381808   6.296620   5.595344
    29  O    5.554836   4.116866   3.609079   5.173132   4.264757
    30  O    4.468223   3.488330   3.471202   4.550588   3.504488
    31  H    3.761224   2.517754   2.614913   3.575636   2.650721
                   16         17         18         19         20
    16  C    0.000000
    17  H    2.091329   0.000000
    18  H    2.128271   1.777452   0.000000
    19  C    1.392754   3.356588   2.714606   0.000000
    20  C    1.394400   2.566368   3.309629   2.397839   0.000000
    21  C    2.419514   4.506481   4.071007   1.390555   2.773789
    22  H    2.149701   3.718235   2.570159   1.085021   3.384705
    23  C    2.799219   4.744894   4.796246   2.408801   2.408230
    24  C    2.419492   3.950656   4.488733   2.773342   1.389278
    25  H    3.396210   4.626406   5.407266   3.856404   2.142484
    26  H    2.141009   2.317032   3.590339   3.378196   1.085331
    27  H    3.398882   5.461394   4.786305   2.148443   3.856591
    28  H    3.881763   5.808110   5.859634   3.389858   3.391096
    29  O    4.364000   2.567482   4.238815   5.743853   4.106297
    30  O    4.310095   2.619843   4.241034   5.640442   4.176767
    31  H    3.595592   1.918857   3.392728   4.860793   3.729254
                   21         22         23         24         25
    21  C    0.000000
    22  H    2.142923   0.000000
    23  C    1.389897   3.387729   0.000000
    24  C    2.402502   3.858320   1.389745   0.000000
    25  H    3.387239   4.941370   2.149963   1.083252   0.000000
    26  H    3.859099   4.277473   3.394137   2.152686   2.473625
    27  H    1.082927   2.465974   2.145302   3.384064   4.282857
    28  H    2.147129   4.279881   1.082575   2.150241   2.482648
    29  O    6.682059   6.249778   6.513574   5.336301   5.547629
    30  O    6.613926   6.089949   6.522776   5.417287   5.700876
    31  H    5.926896   5.218433   6.003980   5.038857   5.496315
                   26         27         28         29         30
    26  H    0.000000
    27  H    4.941879   0.000000
    28  H    4.291505   2.470617   0.000000
    29  O    3.185416   7.724315   7.462567   0.000000
    30  O    3.363518   7.630382   7.487111   1.249331   0.000000
    31  H    3.123553   6.901063   7.015995   1.812880   0.981964
                   31
    31  H    0.000000
 Stoichiometry    C14H15O2(2)
 Framework group  C1[X(C14H15O2)]
 Deg. of freedom    87
 Full point group                 C1      NOp   1
 Largest Abelian subgroup         C1      NOp   1
 Largest concise Abelian subgroup C1      NOp   1
                         Standard orientation:                         
 ---------------------------------------------------------------------
 Center     Atomic      Atomic             Coordinates (Angstroms)
 Number     Number       Type             X           Y           Z
 ---------------------------------------------------------------------
      1          6           0       -3.597058    0.379549   -0.756970
      2          6           0       -4.398783   -0.352917    0.117800
      3          6           0       -3.826535   -1.343727    0.911075
      4          6           0       -2.458117   -1.610096    0.821677
      5          6           0       -2.231333    0.136981   -0.823751
      6          6           0       -1.639591   -0.873163   -0.045412
      7          1           0       -1.628524    0.737649   -1.489595
      8          1           0       -4.026660    1.159032   -1.375272
      9          1           0       -5.461029   -0.154218    0.179190
     10          1           0       -4.433994   -1.907602    1.605863
     11          1           0       -2.020876   -2.349308    1.487249
     12          6           0       -0.157981   -1.165039   -0.076321
     13          6           0        0.713448   -0.204161   -0.961025
     14          1           0       -0.031752   -2.216974   -0.340369
     15          1           0        0.230379   -1.057630    0.937865
     16          6           0        2.129402   -0.133137   -0.466691
     17          1           0        0.299732    0.782610   -0.899559
     18          1           0        0.697378   -0.572792   -1.978494
     19          6           0        3.008283   -1.189286   -0.694462
     20          6           0        2.574415    0.960318    0.275380
     21          6           0        4.296631   -1.167601   -0.171653
     22          1           0        2.684965   -2.044418   -1.278831
     23          6           0        4.726881   -0.077252    0.575232
     24          6           0        3.862487    0.988509    0.795158
     25          1           0        4.193688    1.852997    1.357654
     26          1           0        1.895553    1.790023    0.444729
     27          1           0        4.974021   -1.990510   -0.363217
     28          1           0        5.734920   -0.054182    0.969306
     29          8           0       -1.039032    2.854876   -0.188654
     30          8           0       -1.457126    1.997081    0.617703
     31          1           0       -1.151428    1.115802    0.310867
 ---------------------------------------------------------------------
 Rotational constants (GHZ):           1.1012363           0.2591506           0.2271208
 Standard basis: 6-311+G(2df,2p) (5D, 7F)
 There are   759 symmetry adapted cartesian basis functions of A   symmetry.
 There are   679 symmetry adapted basis functions of A   symmetry.
   679 basis functions,   997 primitive gaussians,   759 cartesian basis functions
    58 alpha electrons       57 beta electrons
       nuclear repulsion energy      1014.1482516620 Hartrees.
 NAtoms=   31 NActive=   31 NUniq=   31 SFac= 1.00D+00 NAtFMM=   60 NAOKFM=F Big=F
 Integral buffers will be    131072 words long.
 Raffenetti 2 integral format.
 Two-electron integral symmetry is turned on.
 One-electron integrals computed using PRISM.
 NBasis=   679 RedAO= T EigKep=  1.29D-06  NBF=   679
 NBsUse=   678 1.00D-06 EigRej=  6.22D-07 NBFU=   678
 Initial guess from the checkpoint file:  "/scratch/dinius.ab/QMscratch/Gau-21207.chk"
 B after Tr=     0.000000   -0.000000   -0.000000
         Rot=    0.985598   -0.168630    0.001944   -0.012524 Ang= -19.47 deg.
 Initial guess <Sx>= 0.0000 <Sy>= 0.0000 <Sz>= 0.5000 <S**2>= 0.7595 S= 0.5047
 ExpMin= 4.38D-02 ExpMax= 8.59D+03 ExpMxC= 1.30D+03 IAcc=2 IRadAn=         4 AccDes= 0.00D+00
 Harris functional with IExCor= 1009 and IRadAn=       4 diagonalized for initial guess.
 HarFok:  IExCor= 1009 AccDes= 0.00D+00 IRadAn=         4 IDoV= 1 UseB2=F ITyADJ=14
 ICtDFT=  3500011 ScaDFX=  1.000000  1.000000  1.000000  1.000000
 FoFCou: FMM=F IPFlag=           0 FMFlag=      100000 FMFlg1=           0
         NFxFlg=           0 DoJE=T BraDBF=F KetDBF=T FulRan=T
         wScrn=  0.000000 ICntrl=       500 IOpCl=  0 I1Cent=   200000004 NGrid=           0
         NMat0=    1 NMatS0=      1 NMatT0=    0 NMatD0=    1 NMtDS0=    0 NMtDT0=    0
 Petite list used in FoFCou.
 Requested convergence on RMS density matrix=1.00D-08 within 128 cycles.
 Requested convergence on MAX density matrix=1.00D-06.
 Requested convergence on             energy=1.00D-06.
 No special actions if energy rises.
