 Entering Gaussian System, Link 0=g16
 Input=rxn930.com
 Output=rxn930.log
 Initial command:
 /shared/centos7/gaussian/g16/l1.exe "/scratch/dinius.ab/QMscratch/Gau-33048.inp" -scrdir="/scratch/dinius.ab/QMscratch/"
 Entering Link 1 = /shared/centos7/gaussian/g16/l1.exe PID=     33049.
  
 Copyright (c) 1988,1990,1992,1993,1995,1998,2003,2009,2016,
            Gaussian, Inc.  All Rights Reserved.
  
 This is part of the Gaussian(R) 16 program.  It is based on
 the Gaussian(R) 09 system (copyright 2009, Gaussian, Inc.),
 the Gaussian(R) 03 system (copyright 2003, Gaussian, Inc.),
 the Gaussian(R) 98 system (copyright 1998, Gaussian, Inc.),
 the Gaussian(R) 94 system (copyright 1995, Gaussian, Inc.),
 the Gaussian 92(TM) system (copyright 1992, Gaussian, Inc.),
 the Gaussian 90(TM) system (copyright 1990, Gaussian, Inc.),
 the Gaussian 88(TM) system (copyright 1988, Gaussian, Inc.),
 the Gaussian 86(TM) system (copyright 1986, Carnegie Mellon
 University), and the Gaussian 82(TM) system (copyright 1983,
 Carnegie Mellon University). Gaussian is a federally registered
 trademark of Gaussian, Inc.
  
 This software contains proprietary and confidential information,
 including trade secrets, belonging to Gaussian, Inc.
  
 This software is provided under written license and may be
 used, copied, transmitted, or stored only in accord with that
 written license.
  
 The following legend is applicable only to US Government
 contracts under FAR:
  
                    RESTRICTED RIGHTS LEGEND
  
 Use, reproduction and disclosure by the US Government is
 subject to restrictions as set forth in subparagraphs (a)
 and (c) of the Commercial Computer Software - Restricted
 Rights clause in FAR 52.227-19.
  
 Gaussian, Inc.
 340 Quinnipiac St., Bldg. 40, Wallingford CT 06492
  
  
 ---------------------------------------------------------------
 Warning -- This program may not be used in any manner that
 competes with the business of Gaussian, Inc. or will provide
 assistance to any competitor of Gaussian, Inc.  The licensee
 of this program is prohibited from giving any competitor of
 Gaussian, Inc. access to this program.  By using this program,
 the user acknowledges that Gaussian, Inc. is engaged in the
 business of creating and licensing software in the field of
 computational chemistry and represents and warrants to the
 licensee that it is not a competitor of Gaussian, Inc. and that
 it will not use this program in any manner prohibited above.
 ---------------------------------------------------------------
  

 Cite this work as:
 Gaussian 16, Revision A.03,
 M. J. Frisch, G. W. Trucks, H. B. Schlegel, G. E. Scuseria, 
 M. A. Robb, J. R. Cheeseman, G. Scalmani, V. Barone, 
 G. A. Petersson, H. Nakatsuji, X. Li, M. Caricato, A. V. Marenich, 
 J. Bloino, B. G. Janesko, R. Gomperts, B. Mennucci, H. P. Hratchian, 
 J. V. Ortiz, A. F. Izmaylov, J. L. Sonnenberg, D. Williams-Young, 
 F. Ding, F. Lipparini, F. Egidi, J. Goings, B. Peng, A. Petrone, 
 T. Henderson, D. Ranasinghe, V. G. Zakrzewski, J. Gao, N. Rega, 
 G. Zheng, W. Liang, M. Hada, M. Ehara, K. Toyota, R. Fukuda, 
 J. Hasegawa, M. Ishida, T. Nakajima, Y. Honda, O. Kitao, H. Nakai, 
 T. Vreven, K. Throssell, J. A. Montgomery, Jr., J. E. Peralta, 
 F. Ogliaro, M. J. Bearpark, J. J. Heyd, E. N. Brothers, K. N. Kudin, 
 V. N. Staroverov, T. A. Keith, R. Kobayashi, J. Normand, 
 K. Raghavachari, A. P. Rendell, J. C. Burant, S. S. Iyengar, 
 J. Tomasi, M. Cossi, J. M. Millam, M. Klene, C. Adamo, R. Cammi, 
 J. W. Ochterski, R. L. Martin, K. Morokuma, O. Farkas, 
 J. B. Foresman, and D. J. Fox, Gaussian, Inc., Wallingford CT, 2016.
 
 ******************************************
 Gaussian 16:  EM64L-G16RevA.03 25-Dec-2016
                29-Oct-2018 
 ******************************************
 ----------------------------------------------------------------------
 #m062x/6-311+g(2df,2p) Opt=(ModRedun,Loose,maxcycle=1000) Int(Grid=SG1
 ) freq
 ----------------------------------------------------------------------
 1/6=1000,7=-1,18=120,19=15,26=2,38=1/1,3;
 2/9=110,12=2,17=6,18=5,40=1/2;
 3/5=4,6=6,7=214,11=2,25=1,30=1,71=1,74=-55,75=1/1,2,3;
 4//1;
 5/5=2,38=5/2;
 6/7=2,8=2,9=2,10=2,28=1/1;
 7//1,2,3,16;
 1/6=1000,7=-1,18=20,19=15,26=2/3(2);
 2/9=110/2;
 99//99;
 2/9=110/2;
 3/5=4,6=6,7=214,11=2,25=1,30=1,71=1,74=-55,75=1/1,2,3;
 4/5=5,16=3,69=1/1;
 5/5=2,38=5/2;
 7//1,2,3,16;
 1/6=1000,7=-1,18=20,19=15,26=2/3(-5);
 2/9=110/2;
 6/7=2,8=2,9=2,10=2,19=2,28=1/1;
 99/9=1/99;
 -----
 Title
 -----
 Symbolic Z-matrix:
 Charge =  0 Multiplicity = 2
 C                    -6.71767  -2.0291    0.39807 
 C                    -7.77319  -1.16426   0.12154 
 C                    -7.51249   0.16226  -0.21359 
 H                    -8.79894  -1.52232   0.16874 
 C                    -6.19651   0.61963  -0.27013 
 H                    -8.37993   0.80847  -0.42268 
 C                    -5.12853  -0.23843   0.00537 
 H                    -6.00618   1.65864  -0.52945 
 C                    -5.4024   -1.57083   0.34169 
 H                    -6.92001  -3.06467   0.66078 
 H                    -4.60255  -2.27049   0.56558 
 C                    -3.71111   0.33009  -0.06173 
 C                    -2.5608   -0.69828   0.01846 
 H                    -3.58823   1.05492   0.74675 
 H                    -3.61076   0.88694  -0.99684 
 C                    -1.19422  -0.04045  -0.10113 
 H                    -2.67365  -1.43671  -0.77925 
 H                    -2.61969  -1.23568   0.96799 
 C                    -0.75166   0.44025  -1.33578 
 C                     0.5001    1.04279  -1.44851 
 H                    -1.38389   0.34807  -2.21587 
 C                    -0.3689    0.08529   1.01926 
 C                     0.88464   0.68416   0.90542 
 H                    -0.69844  -0.28502   1.98728 
 C                     1.31931   1.16402  -0.32818 
 H                     1.52388   0.77665   1.78008 
 H                     0.83783   1.41747  -2.41165 
 H                     2.29679   1.63194  -0.41653 
 O                    -9.10295   1.64029  -0.4431 
 O                    -9.90681   2.74656   0.09756 
 H                    -9.28352   3.48084  -0.05262 
 
 The following ModRedundant input section has been read:
 

 GradGradGradGradGradGradGradGradGradGradGradGradGradGradGradGradGradGrad
 Berny optimization.
 Initialization pass.
                           ----------------------------
                           !    Initial Parameters    !
                           ! (Angstroms and Degrees)  !
 --------------------------                            --------------------------
 ! Name  Definition              Value          Derivative Info.                !
 --------------------------------------------------------------------------------
 ! R1    R(1,2)                  1.3923         estimate D2E/DX2                !
 ! R2    R(1,9)                  1.394          estimate D2E/DX2                !
 ! R3    R(1,10)                 1.0874         estimate D2E/DX2                !
 ! R4    R(2,3)                  1.3928         estimate D2E/DX2                !
 ! R5    R(2,4)                  1.0875         estimate D2E/DX2                !
 ! R6    R(3,5)                  1.3943         estimate D2E/DX2                !
 ! R7    R(3,6)                  1.1017         estimate D2E/DX2                !
 ! R8    R(5,7)                  1.3974         estimate D2E/DX2                !
 ! R9    R(5,8)                  1.0877         estimate D2E/DX2                !
 ! R10   R(6,29)                 1.1023         estimate D2E/DX2                !
 ! R11   R(7,9)                  1.4012         estimate D2E/DX2                !
 ! R12   R(7,12)                 1.5287         estimate D2E/DX2                !
 ! R13   R(9,11)                 1.086          estimate D2E/DX2                !
 ! R14   R(12,13)                1.5451         estimate D2E/DX2                !
 ! R15   R(12,14)                1.0928         estimate D2E/DX2                !
 ! R16   R(12,15)                1.093          estimate D2E/DX2                !
 ! R17   R(13,16)                1.5214         estimate D2E/DX2                !
 ! R18   R(13,17)                1.0929         estimate D2E/DX2                !
 ! R19   R(13,18)                1.0926         estimate D2E/DX2                !
 ! R20   R(16,19)                1.3969         estimate D2E/DX2                !
 ! R21   R(16,22)                1.3972         estimate D2E/DX2                !
 ! R22   R(19,20)                1.3938         estimate D2E/DX2                !
 ! R23   R(19,21)                1.0876         estimate D2E/DX2                !
 ! R24   R(20,25)                1.3932         estimate D2E/DX2                !
 ! R25   R(20,27)                1.0872         estimate D2E/DX2                !
 ! R26   R(22,23)                1.3939         estimate D2E/DX2                !
 ! R27   R(22,24)                1.0876         estimate D2E/DX2                !
 ! R28   R(23,25)                1.3932         estimate D2E/DX2                !
 ! R29   R(23,26)                1.0873         estimate D2E/DX2                !
 ! R30   R(25,28)                1.0873         estimate D2E/DX2                !
 ! R31   R(29,30)                1.4705         estimate D2E/DX2                !
 ! R32   R(30,31)                0.9748         estimate D2E/DX2                !
 ! A1    A(2,1,9)              120.2033         estimate D2E/DX2                !
 ! A2    A(2,1,10)             119.8995         estimate D2E/DX2                !
 ! A3    A(9,1,10)             119.8971         estimate D2E/DX2                !
 ! A4    A(1,2,3)              119.8333         estimate D2E/DX2                !
 ! A5    A(1,2,4)              120.1281         estimate D2E/DX2                !
 ! A6    A(3,2,4)              120.0385         estimate D2E/DX2                !
 ! A7    A(2,3,5)              119.9219         estimate D2E/DX2                !
 ! A8    A(2,3,6)              117.1889         estimate D2E/DX2                !
 ! A9    A(5,3,6)              122.8891         estimate D2E/DX2                !
 ! A10   A(3,5,7)              120.7903         estimate D2E/DX2                !
 ! A11   A(3,5,8)              119.2203         estimate D2E/DX2                !
 ! A12   A(7,5,8)              119.9892         estimate D2E/DX2                !
 ! A13   A(3,6,29)             164.2749         estimate D2E/DX2                !
 ! A14   A(5,7,9)              118.8047         estimate D2E/DX2                !
 ! A15   A(5,7,12)             118.1398         estimate D2E/DX2                !
 ! A16   A(9,7,12)             123.0525         estimate D2E/DX2                !
 ! A17   A(1,9,7)              120.4466         estimate D2E/DX2                !
 ! A18   A(1,9,11)             118.3457         estimate D2E/DX2                !
 ! A19   A(7,9,11)             121.2076         estimate D2E/DX2                !
 ! A20   A(7,12,13)            116.137          estimate D2E/DX2                !
 ! A21   A(7,12,14)            108.571          estimate D2E/DX2                !
 ! A22   A(7,12,15)            108.19           estimate D2E/DX2                !
 ! A23   A(13,12,14)           108.6247         estimate D2E/DX2                !
 ! A24   A(13,12,15)           108.3702         estimate D2E/DX2                !
 ! A25   A(14,12,15)           106.5426         estimate D2E/DX2                !
 ! A26   A(12,13,16)           112.1409         estimate D2E/DX2                !
 ! A27   A(12,13,17)           109.5703         estimate D2E/DX2                !
 ! A28   A(12,13,18)           109.4106         estimate D2E/DX2                !
 ! A29   A(16,13,17)           109.1193         estimate D2E/DX2                !
 ! A30   A(16,13,18)           109.2317         estimate D2E/DX2                !
 ! A31   A(17,13,18)           107.2433         estimate D2E/DX2                !
 ! A32   A(13,16,19)           120.1891         estimate D2E/DX2                !
 ! A33   A(13,16,22)           120.4286         estimate D2E/DX2                !
 ! A34   A(19,16,22)           119.3819         estimate D2E/DX2                !
 ! A35   A(16,19,20)           120.317          estimate D2E/DX2                !
 ! A36   A(16,19,21)           120.1263         estimate D2E/DX2                !
 ! A37   A(20,19,21)           119.5565         estimate D2E/DX2                !
 ! A38   A(19,20,25)           120.0444         estimate D2E/DX2                !
 ! A39   A(19,20,27)           119.9737         estimate D2E/DX2                !
 ! A40   A(25,20,27)           119.9818         estimate D2E/DX2                !
 ! A41   A(16,22,23)           120.2902         estimate D2E/DX2                !
 ! A42   A(16,22,24)           120.2719         estimate D2E/DX2                !
 ! A43   A(23,22,24)           119.4378         estimate D2E/DX2                !
 ! A44   A(22,23,25)           120.0579         estimate D2E/DX2                !
 ! A45   A(22,23,26)           119.9711         estimate D2E/DX2                !
 ! A46   A(25,23,26)           119.971          estimate D2E/DX2                !
 ! A47   A(20,25,23)           119.9081         estimate D2E/DX2                !
 ! A48   A(20,25,28)           120.0483         estimate D2E/DX2                !
 ! A49   A(23,25,28)           120.0436         estimate D2E/DX2                !
 ! A50   A(6,29,30)            156.8466         estimate D2E/DX2                !
 ! A51   A(29,30,31)            99.2365         estimate D2E/DX2                !
 ! D1    D(9,1,2,3)              0.063          estimate D2E/DX2                !
 ! D2    D(9,1,2,4)           -179.82           estimate D2E/DX2                !
 ! D3    D(10,1,2,3)           179.9395         estimate D2E/DX2                !
 ! D4    D(10,1,2,4)             0.0565         estimate D2E/DX2                !
 ! D5    D(2,1,9,7)             -0.0763         estimate D2E/DX2                !
 ! D6    D(2,1,9,11)           179.8392         estimate D2E/DX2                !
 ! D7    D(10,1,9,7)          -179.9528         estimate D2E/DX2                !
 ! D8    D(10,1,9,11)           -0.0373         estimate D2E/DX2                !
 ! D9    D(1,2,3,5)             -0.0432         estimate D2E/DX2                !
 ! D10   D(1,2,3,6)           -179.9286         estimate D2E/DX2                !
 ! D11   D(4,2,3,5)            179.84           estimate D2E/DX2                !
 ! D12   D(4,2,3,6)             -0.0454         estimate D2E/DX2                !
 ! D13   D(2,3,5,7)              0.0366         estimate D2E/DX2                !
 ! D14   D(2,3,5,8)           -179.776          estimate D2E/DX2                !
 ! D15   D(6,3,5,7)            179.9153         estimate D2E/DX2                !
 ! D16   D(6,3,5,8)              0.1027         estimate D2E/DX2                !
 ! D17   D(2,3,6,29)           131.7592         estimate D2E/DX2                !
 ! D18   D(5,3,6,29)           -48.1226         estimate D2E/DX2                !
 ! D19   D(3,5,7,9)             -0.0488         estimate D2E/DX2                !
 ! D20   D(3,5,7,12)          -179.4396         estimate D2E/DX2                !
 ! D21   D(8,5,7,9)            179.7624         estimate D2E/DX2                !
 ! D22   D(8,5,7,12)             0.3715         estimate D2E/DX2                !
 ! D23   D(3,6,29,30)          -38.7305         estimate D2E/DX2                !
 ! D24   D(5,7,9,1)              0.0684         estimate D2E/DX2                !
 ! D25   D(5,7,9,11)          -179.8445         estimate D2E/DX2                !
 ! D26   D(12,7,9,1)           179.4276         estimate D2E/DX2                !
 ! D27   D(12,7,9,11)           -0.4854         estimate D2E/DX2                !
 ! D28   D(5,7,12,13)         -170.2383         estimate D2E/DX2                !
 ! D29   D(5,7,12,14)           67.068          estimate D2E/DX2                !
 ! D30   D(5,7,12,15)          -48.1818         estimate D2E/DX2                !
 ! D31   D(9,7,12,13)           10.3985         estimate D2E/DX2                !
 ! D32   D(9,7,12,14)         -112.2951         estimate D2E/DX2                !
 ! D33   D(9,7,12,15)          132.4551         estimate D2E/DX2                !
 ! D34   D(7,12,13,16)         178.1783         estimate D2E/DX2                !
 ! D35   D(7,12,13,17)          56.85           estimate D2E/DX2                !
 ! D36   D(7,12,13,18)         -60.4616         estimate D2E/DX2                !
 ! D37   D(14,12,13,16)        -59.1562         estimate D2E/DX2                !
 ! D38   D(14,12,13,17)        179.5155         estimate D2E/DX2                !
 ! D39   D(14,12,13,18)         62.2039         estimate D2E/DX2                !
 ! D40   D(15,12,13,16)         56.217          estimate D2E/DX2                !
 ! D41   D(15,12,13,17)        -65.1113         estimate D2E/DX2                !
 ! D42   D(15,12,13,18)        177.5771         estimate D2E/DX2                !
 ! D43   D(12,13,16,19)        -73.4127         estimate D2E/DX2                !
 ! D44   D(12,13,16,22)        106.7827         estimate D2E/DX2                !
 ! D45   D(17,13,16,19)         48.1745         estimate D2E/DX2                !
 ! D46   D(17,13,16,22)       -131.6301         estimate D2E/DX2                !
 ! D47   D(18,13,16,19)        165.1245         estimate D2E/DX2                !
 ! D48   D(18,13,16,22)        -14.6801         estimate D2E/DX2                !
 ! D49   D(13,16,19,20)       -179.969          estimate D2E/DX2                !
 ! D50   D(13,16,19,21)          0.1515         estimate D2E/DX2                !
 ! D51   D(22,16,19,20)         -0.1624         estimate D2E/DX2                !
 ! D52   D(22,16,19,21)        179.9581         estimate D2E/DX2                !
 ! D53   D(13,16,22,23)        179.7677         estimate D2E/DX2                !
 ! D54   D(13,16,22,24)         -0.1172         estimate D2E/DX2                !
 ! D55   D(19,16,22,23)         -0.0385         estimate D2E/DX2                !
 ! D56   D(19,16,22,24)       -179.9233         estimate D2E/DX2                !
 ! D57   D(16,19,20,25)          0.236          estimate D2E/DX2                !
 ! D58   D(16,19,20,27)       -179.8294         estimate D2E/DX2                !
 ! D59   D(21,19,20,25)       -179.8838         estimate D2E/DX2                !
 ! D60   D(21,19,20,27)          0.0508         estimate D2E/DX2                !
 ! D61   D(19,20,25,23)         -0.1076         estimate D2E/DX2                !
 ! D62   D(19,20,25,28)        179.8556         estimate D2E/DX2                !
 ! D63   D(27,20,25,23)        179.9578         estimate D2E/DX2                !
 ! D64   D(27,20,25,28)         -0.079          estimate D2E/DX2                !
 ! D65   D(16,22,23,25)          0.166          estimate D2E/DX2                !
 ! D66   D(16,22,23,26)       -179.8182         estimate D2E/DX2                !
 ! D67   D(24,22,23,25)       -179.9481         estimate D2E/DX2                !
 ! D68   D(24,22,23,26)          0.0677         estimate D2E/DX2                !
 ! D69   D(22,23,25,20)         -0.0927         estimate D2E/DX2                !
 ! D70   D(22,23,25,28)        179.9441         estimate D2E/DX2                !
 ! D71   D(26,23,25,20)        179.8915         estimate D2E/DX2                !
 ! D72   D(26,23,25,28)         -0.0717         estimate D2E/DX2                !
 ! D73   D(6,29,30,31)          90.6353         estimate D2E/DX2                !
 --------------------------------------------------------------------------------
 Trust Radius=3.00D-01 FncErr=1.00D-05 GrdErr=1.00D-04 EigMax=2.50D+02 EigMin=1.00D-04
 Number of steps in this run=    186 maximum allowed number of steps=    186.
 GradGradGradGradGradGradGradGradGradGradGradGradGradGradGradGradGradGrad

                          Input orientation:                          
 ---------------------------------------------------------------------
 Center     Atomic      Atomic             Coordinates (Angstroms)
 Number     Number       Type             X           Y           Z
 ---------------------------------------------------------------------
      1          6           0       -6.717670   -2.029100    0.398070
      2          6           0       -7.773190   -1.164260    0.121540
      3          6           0       -7.512490    0.162260   -0.213590
      4          1           0       -8.798940   -1.522320    0.168740
      5          6           0       -6.196510    0.619630   -0.270130
      6          1           0       -8.379930    0.808470   -0.422680
      7          6           0       -5.128530   -0.238430    0.005370
      8          1           0       -6.006180    1.658640   -0.529450
      9          6           0       -5.402400   -1.570830    0.341690
     10          1           0       -6.920010   -3.064670    0.660780
     11          1           0       -4.602550   -2.270490    0.565580
     12          6           0       -3.711110    0.330090   -0.061730
     13          6           0       -2.560800   -0.698280    0.018460
     14          1           0       -3.588230    1.054920    0.746750
     15          1           0       -3.610760    0.886940   -0.996840
     16          6           0       -1.194220   -0.040450   -0.101130
     17          1           0       -2.673650   -1.436710   -0.779250
     18          1           0       -2.619690   -1.235680    0.967990
     19          6           0       -0.751660    0.440250   -1.335780
     20          6           0        0.500100    1.042790   -1.448510
     21          1           0       -1.383890    0.348070   -2.215870
     22          6           0       -0.368900    0.085290    1.019260
     23          6           0        0.884640    0.684160    0.905420
     24          1           0       -0.698440   -0.285020    1.987280
     25          6           0        1.319310    1.164020   -0.328180
     26          1           0        1.523880    0.776650    1.780080
     27          1           0        0.837830    1.417470   -2.411650
     28          1           0        2.296790    1.631940   -0.416530
     29          8           0       -9.102950    1.640290   -0.443100
     30          8           0       -9.906810    2.746560    0.097560
     31          1           0       -9.283520    3.480840   -0.052620
 ---------------------------------------------------------------------
                    Distance matrix (angstroms):
                    1          2          3          4          5
     1  C    0.000000
     2  C    1.392314   0.000000
     3  C    2.409964   1.392814   0.000000
     4  H    2.154322   1.087473   2.153820   0.000000
     5  C    2.780984   2.412797   1.394341   3.399000   0.000000
     6  H    3.389475   2.134472   1.101707   2.440887   2.196874
     7  C    2.426124   2.804440   2.427295   3.891911   1.397408
     8  H    3.868583   3.393358   2.146600   4.290161   1.087665
     9  C    1.393960   2.415452   2.786470   3.401286   2.408952
    10  H    1.087365   2.151803   3.395384   2.480186   3.868347
    11  H    2.135430   3.387311   3.872096   4.280996   3.404690
    12  C    3.849233   4.332108   3.808112   5.419461   2.510872
    13  C    4.381182   5.234193   5.031263   6.294126   3.877958
    14  H    4.407511   4.778027   4.137501   5.841897   2.833134
    15  H    4.483520   4.773261   4.045014   5.837835   2.699197
    16  C    5.891725   6.677977   6.322521   7.752453   5.048482
    17  H    4.253364   5.185649   5.127480   6.198806   4.110752
    18  H    4.212810   5.223039   5.223970   6.237315   4.215300
    19  C    6.685597   7.348477   6.858966   8.418668   5.551052
    20  C    8.058695   8.705369   8.154873   9.780973   6.812652
    21  H    6.397877   6.969489   6.450069   8.010474   5.198169
    22  C    6.720372   7.562459   7.249601   8.624000   5.992419
    23  C    8.087911   8.887584   8.487423   9.959065   7.178354
    24  H    6.465179   7.369270   7.174620   8.393813   6.011910
    25  C    8.678508   9.396632   8.889170  10.480569   7.535734
    26  H    8.815063   9.641234   9.274059  10.697770   7.989521
    27  H    8.766924   9.339810   8.725529  10.400390   7.396256
    28  H    9.763569  10.464834   9.920843  11.550200   8.554668
    29  O    4.456630   3.154771   2.183303   3.235564   3.085297
    30  O    5.750465   4.455045   3.536692   4.410871   4.292476
    31  H    6.094764   4.887574   3.765027   5.031444   4.214672
                    6          7          8          9         10
     6  H    0.000000
     7  C    3.442503   0.000000
     8  H    2.523664   2.157586   0.000000
     9  C    3.887289   1.401216   3.398957   0.000000
    10  H    4.278606   3.409779   4.955945   2.153257   0.000000
    11  H    4.972449   2.172500   4.313621   1.086007   2.451613
    12  C    4.707124   1.528659   2.692797   2.576181   4.726886
    13  C    6.027203   2.608615   4.210216   2.990069   5.001509
    14  H    4.938491   2.143577   2.799937   3.217118   5.298978
    15  H    4.804248   2.138810   2.559690   3.322991   5.414246
    16  C    7.242823   3.940728   5.121067   4.499659   6.520052
    17  H    6.142443   2.842172   4.555145   2.953061   4.770274
    18  H    6.268403   2.866256   4.699758   2.871942   4.683197
    19  C    7.691543   4.627773   5.453863   5.337390   7.370160
    20  C    8.942157   5.952879   6.599668   6.698905   8.739472
    21  H    7.236855   4.393201   5.091873   5.135340   7.111296
    22  C    8.171829   4.877176   6.054160   5.342093   7.277898
    23  C    9.360105   6.149754   7.105763   6.702958   8.661763
    24  H    8.124587   4.853435   6.187394   5.146699   6.942189
    25  C    9.706215   6.607024   7.344928   7.287628   9.313767
    26  H   10.145867   6.959493   7.925506   7.453387   9.343867
    27  H    9.449549   6.646912   7.102205   7.446562   9.471720
    28  H   10.708431   7.668876   8.303781   8.373181  10.400392
    29  O    1.102315   4.418906   3.098028   4.961981   5.302870
    30  O    2.521548   5.634769   4.097759   6.244130   6.558093
    31  H    2.845168   5.576762   3.780045   6.382628   6.995629
                   11         12         13         14         15
    11  H    0.000000
    12  C    2.819787   0.000000
    13  C    2.634374   1.545053   0.000000
    14  H    3.481382   1.092757   2.158641   0.000000
    15  H    3.659804   1.092970   2.155498   1.751808   0.000000
    16  C    4.127262   2.544325   1.521375   2.765867   2.738981
    17  H    2.494877   2.170885   1.092866   3.061593   2.514929
    18  H    2.272553   2.168676   1.092645   2.496771   3.057498
    19  C    5.078645   3.223924   2.530455   3.572237   2.913566
    20  C    6.408699   4.490589   3.814765   4.640448   4.138534
    21  H    4.995307   3.171214   2.733532   3.759770   2.595258
    22  C    4.866140   3.521198   2.533774   3.373208   3.900892
    23  C    6.241370   4.709741   3.816922   4.491014   4.885523
    24  H    4.604932   3.694994   2.741427   3.418368   4.331290
    25  C    6.903846   5.106032   4.317821   5.025070   4.982918
    26  H    6.949332   5.567477   4.686506   5.222918   5.838491
    27  H    7.215447   5.234250   4.683217   5.449490   4.698202
    28  H    7.987139   6.157561   5.405120   6.026577   5.982552
    29  O    6.046920   5.561835   6.962878   5.671908   5.571204
    30  O    7.316079   6.652173   8.114003   6.573245   6.655535
    31  H    7.441199   6.401489   7.916127   6.241827   6.308730
                   16         17         18         19         20
    16  C    0.000000
    17  H    2.144319   0.000000
    18  H    2.145590   1.759594   0.000000
    19  C    1.396887   2.743492   3.406704   0.000000
    20  C    2.420653   4.082710   4.556752   1.393795   0.000000
    21  H    2.158483   2.629220   3.764629   1.087552   2.149627
    22  C    1.397225   3.295906   2.610296   2.412201   2.786011
    23  C    2.420715   4.471871   3.996252   2.785668   2.411944
    24  H    2.160340   3.589085   2.373585   3.401702   3.873529
    25  C    2.796450   4.786543   4.791069   2.414129   1.393177
    26  H    3.405095   5.391511   4.677407   3.872962   3.397462
    27  H    3.404888   4.810568   5.515035   2.153818   1.087237
    28  H    3.883750   5.852645   5.857637   3.399734   2.154107
    29  O    8.092579   7.135603   7.231531   8.484163   9.674008
    30  O    9.149652   8.401616   8.349731   9.549361  10.658187
    31  H    8.822619   8.270470   8.227626   9.147914  10.178989
                   21         22         23         24         25
    21  H    0.000000
    22  C    3.400783   0.000000
    23  C    3.873195   1.393904   0.000000
    24  H    4.305475   1.087561   2.148458   0.000000
    25  C    3.396533   2.414396   1.393188   3.395937   0.000000
    26  H    4.960486   2.153936   1.087296   2.471595   2.153292
    27  H    2.473456   3.873247   3.397483   4.960764   2.153348
    28  H    4.293408   3.399930   2.154067   4.292370   1.087300
    29  O    8.024739   8.991115  10.123470   8.958200  10.433769
    30  O    9.151223   9.945030  11.016421   9.877024  11.345107
    31  H    8.769153   9.599434  10.589180   9.594086  10.856500
                   26         27         28         29         30
    26  H    0.000000
    27  H    4.295569   0.000000
    28  H    2.480727   2.480940   0.000000
    29  O   10.891185  10.136269  11.399774   0.000000
    30  O   11.720584  11.113501  12.265175   1.470489   0.000000
    31  H   11.290320  10.595482  11.732623   1.890160   0.974788
                   31
    31  H    0.000000
 Stoichiometry    C14H15O2(2)
 Framework group  C1[X(C14H15O2)]
 Deg. of freedom    87
 Full point group                 C1      NOp   1
 Largest Abelian subgroup         C1      NOp   1
 Largest concise Abelian subgroup C1      NOp   1
                         Standard orientation:                         
 ---------------------------------------------------------------------
 Center     Atomic      Atomic             Coordinates (Angstroms)
 Number     Number       Type             X           Y           Z
 ---------------------------------------------------------------------
      1          6           0        2.556546    2.384132   -0.104062
      2          6           0        3.625894    1.497396   -0.197515
      3          6           0        3.388393    0.125123   -0.217347
      4          1           0        4.644400    1.874442   -0.253002
      5          6           0        2.081725   -0.355744   -0.142705
      6          1           0        4.266101   -0.536651   -0.291120
      7          6           0        1.000050    0.523942   -0.048471
      8          1           0        1.909609   -1.429629   -0.155421
      9          6           0        1.250609    1.902438   -0.029073
     10          1           0        2.740792    3.455646   -0.087499
     11          1           0        0.439556    2.620785    0.045642
     12          6           0       -0.405822   -0.069295    0.043128
     13          6           0       -1.576380    0.930351   -0.089880
     14          1           0       -0.501000   -0.593179    0.997385
     15          1           0       -0.508480   -0.825943   -0.738875
     16          6           0       -2.930327    0.239094   -0.030095
     17          1           0       -1.491354    1.469754   -1.036543
     18          1           0       -1.514536    1.670628    0.711394
     19          6           0       -3.381237   -0.517466   -1.114340
     20          6           0       -4.621474   -1.151350   -1.062687
     21          1           0       -2.764523   -0.617051   -2.004575
     22          6           0       -3.735708    0.357347    1.105517
     23          6           0       -4.977820   -0.273247    1.155291
     24          1           0       -3.399475    0.943816    1.957450
     25          6           0       -5.420845   -1.028615    0.071722
     26          1           0       -5.601617   -0.175320    2.040447
     27          1           0       -4.965727   -1.741105   -1.908715
     28          1           0       -6.389387   -1.521152    0.111156
     29          8           0        5.006243   -1.338703   -0.136196
     30          8           0        5.841536   -2.278914    0.625792
     31          1           0        5.231786   -3.038744    0.658597
 ---------------------------------------------------------------------
 Rotational constants (GHZ):           1.1634829           0.1664099           0.1532557
 Standard basis: 6-311+G(2df,2p) (5D, 7F)
 There are   759 symmetry adapted cartesian basis functions of A   symmetry.
 There are   679 symmetry adapted basis functions of A   symmetry.
   679 basis functions,   997 primitive gaussians,   759 cartesian basis functions
    58 alpha electrons       57 beta electrons
       nuclear repulsion energy       944.1733693862 Hartrees.
 NAtoms=   31 NActive=   31 NUniq=   31 SFac= 1.00D+00 NAtFMM=   60 NAOKFM=F Big=F
 Integral buffers will be    131072 words long.
 Raffenetti 2 integral format.
 Two-electron integral symmetry is turned on.
 One-electron integrals computed using PRISM.
 NBasis=   679 RedAO= T EigKep=  1.20D-06  NBF=   679
 NBsUse=   678 1.00D-06 EigRej=  5.06D-07 NBFU=   678
 ExpMin= 4.38D-02 ExpMax= 8.59D+03 ExpMxC= 1.30D+03 IAcc=2 IRadAn=         4 AccDes= 0.00D+00
 Harris functional with IExCor= 1009 and IRadAn=       4 diagonalized for initial guess.
 HarFok:  IExCor= 1009 AccDes= 0.00D+00 IRadAn=         4 IDoV= 1 UseB2=F ITyADJ=14
 ICtDFT=  3500011 ScaDFX=  1.000000  1.000000  1.000000  1.000000
 FoFCou: FMM=F IPFlag=           0 FMFlag=      100000 FMFlg1=           0
         NFxFlg=           0 DoJE=T BraDBF=F KetDBF=T FulRan=T
         wScrn=  0.000000 ICntrl=       500 IOpCl=  0 I1Cent=   200000004 NGrid=           0
         NMat0=    1 NMatS0=      1 NMatT0=    0 NMatD0=    1 NMtDS0=    0 NMtDT0=    0
 Petite list used in FoFCou.
 Initial guess <Sx>= 0.0000 <Sy>= 0.0000 <Sz>= 0.5000 <S**2>= 0.7500 S= 0.5000
 Requested convergence on RMS density matrix=1.00D-08 within 128 cycles.
 Requested convergence on MAX density matrix=1.00D-06.
 Requested convergence on             energy=1.00D-06.
 No special actions if energy rises.
 Restarting incremental Fock formation.
 SCF Done:  E(UM062X) =  -692.659951340     A.U. after   24 cycles
            NFock= 24  Conv=0.31D-08     -V/T= 2.0040
 <Sx>= 0.0000 <Sy>= 0.0000 <Sz>= 0.5000 <S**2>= 0.7600 S= 0.5050
 <L.S>= 0.000000000000E+00
 Annihilation of the first spin contaminant:
 S**2 before annihilation     0.7600,   after     0.7501

 **********************************************************************

            Population analysis using the SCF density.

 **********************************************************************

 Orbital symmetries:
 Alpha Orbitals:
       Occupied  (A) (A) (A) (A) (A) (A) (A) (A) (A) (A) (A) (A)
                 (A) (A) (A) (A) (A) (A) (A) (A) (A) (A) (A) (A)
                 (A) (A) (A) (A) (A) (A) (A) (A) (A) (A) (A) (A)
                 (A) (A) (A) (A) (A) (A) (A) (A) (A) (A) (A) (A)
                 (A) (A) (A) (A) (A) (A) (A) (A) (A) (A)
       Virtual   (A) (A) (A) (A) (A) (A) (A) (A) (A) (A) (A) (A)
                 (A) (A) (A) (A) (A) (A) (A) (A) (A) (A) (A) (A)
                 (A) (A) (A) (A) (A) (A) (A) (A) (A) (A) (A) (A)
                 (A) (A) (A) (A) (A) (A) (A) (A) (A) (A) (A) (A)
                 (A) (A) (A) (A) (A) (A) (A) (A) (A) (A) (A) (A)
                 (A) (A) (A) (A) (A) (A) (A) (A) (A) (A) (A) (A)
                 (A) (A) (A) (A) (A) (A) (A) (A) (A) (A) (A) (A)
                 (A) (A) (A) (A) (A) (A) (A) (A) (A) (A) (A) (A)
                 (A) (A) (A) (A) (A) (A) (A) (A) (A) (A) (A) (A)
                 (A) (A) (A) (A) (A) (A) (A) (A) (A) (A) (A) (A)
                 (A) (A) (A) (A) (A) (A) (A) (A) (A) (A) (A) (A)
                 (A) (A) (A) (A) (A) (A) (A) (A) (A) (A) (A) (A)
                 (A) (A) (A) (A) (A) (A) (A) (A) (A) (A) (A) (A)
                 (A) (A) (A) (A) (A) (A) (A) (A) (A) (A) (A) (A)
                 (A) (A) (A) (A) (A) (A) (A) (A) (A) (A) (A) (A)
                 (A) (A) (A) (A) (A) (A) (A) (A) (A) (A) (A) (A)
                 (A) (A) (A) (A) (A) (A) (A) (A) (A) (A) (A) (A)
                 (A) (A) (A) (A) (A) (A) (A) (A) (A) (A) (A) (A)
                 (A) (A) (A) (A) (A) (A) (A) (A) (A) (A) (A) (A)
                 (A) (A) (A) (A) (A) (A) (A) (A) (A) (A) (A) (A)
                 (A) (A) (A) (A) (A) (A) (A) (A) (A) (A) (A) (A)
                 (A) (A) (A) (A) (A) (A) (A) (A) (A) (A) (A) (A)
                 (A) (A) (A) (A) (A) (A) (A) (A) (A) (A) (A) (A)
                 (A) (A) (A) (A) (A) (A) (A) (A) (A) (A) (A) (A)
                 (A) (A) (A) (A) (A) (A) (A) (A) (A) (A) (A) (A)
                 (A) (A) (A) (A) (A) (A) (A) (A) (A) (A) (A) (A)
                 (A) (A) (A) (A) (A) (A) (A) (A) (A) (A) (A) (A)
                 (A) (A) (A) (A) (A) (A) (A) (A) (A) (A) (A) (A)
                 (A) (A) (A) (A) (A) (A) (A) (A) (A) (A) (A) (A)
                 (A) (A) (A) (A) (A) (A) (A) (A) (A) (A) (A) (A)
                 (A) (A) (A) (A) (A) (A) (A) (A) (A) (A) (A) (A)
                 (A) (A) (A) (A) (A) (A) (A) (A) (A) (A) (A) (A)
                 (A) (A) (A) (A) (A) (A) (A) (A) (A) (A) (A) (A)
                 (A) (A) (A) (A) (A) (A) (A) (A) (A) (A) (A) (A)
                 (A) (A) (A) (A) (A) (A) (A) (A) (A) (A) (A) (A)
                 (A) (A) (A) (A) (A) (A) (A) (A) (A) (A) (A) (A)
                 (A) (A) (A) (A) (A) (A) (A) (A) (A) (A) (A) (A)
                 (A) (A) (A) (A) (A) (A) (A) (A) (A) (A) (A) (A)
                 (A) (A) (A) (A) (A) (A) (A) (A) (A) (A) (A) (A)
                 (A) (A) (A) (A) (A) (A) (A) (A) (A) (A) (A) (A)
                 (A) (A) (A) (A) (A) (A) (A) (A) (A) (A) (A) (A)
                 (A) (A) (A) (A) (A) (A) (A) (A) (A) (A) (A) (A)
                 (A) (A) (A) (A) (A) (A) (A) (A) (A) (A) (A) (A)
                 (A) (A) (A) (A) (A) (A) (A) (A) (A) (A) (A) (A)
                 (A) (A) (A) (A) (A) (A) (A) (A) (A) (A) (A) (A)
                 (A) (A) (A) (A) (A) (A) (A) (A) (A) (A) (A) (A)
                 (A) (A) (A) (A) (A) (A) (A) (A) (A) (A) (A) (A)
                 (A) (A) (A) (A) (A) (A) (A) (A) (A) (A) (A) (A)
                 (A) (A) (A) (A) (A) (A) (A) (A) (A) (A) (A) (A)
                 (A) (A) (A) (A) (A) (A) (A) (A) (A) (A) (A) (A)
                 (A) (A) (A) (A) (A) (A) (A) (A) (A) (A) (A) (A)
                 (A) (A) (A) (A) (A) (A) (A) (A)
 Beta  Orbitals:
       Occupied  (A) (A) (A) (A) (A) (A) (A) (A) (A) (A) (A) (A)
                 (A) (A) (A) (A) (A) (A) (A) (A) (A) (A) (A) (A)
                 (A) (A) (A) (A) (A) (A) (A) (A) (A) (A) (A) (A)
                 (A) (A) (A) (A) (A) (A) (A) (A) (A) (A) (A) (A)
                 (A) (A) (A) (A) (A) (A) (A) (A) (A)
       Virtual   (A) (A) (A) (A) (A) (A) (A) (A) (A) (A) (A) (A)
                 (A) (A) (A) (A) (A) (A) (A) (A) (A) (A) (A) (A)
                 (A) (A) (A) (A) (A) (A) (A) (A) (A) (A) (A) (A)
                 (A) (A) (A) (A) (A) (A) (A) (A) (A) (A) (A) (A)
                 (A) (A) (A) (A) (A) (A) (A) (A) (A) (A) (A) (A)
                 (A) (A) (A) (A) (A) (A) (A) (A) (A) (A) (A) (A)
                 (A) (A) (A) (A) (A) (A) (A) (A) (A) (A) (A) (A)
                 (A) (A) (A) (A) (A) (A) (A) (A) (A) (A) (A) (A)
                 (A) (A) (A) (A) (A) (A) (A) (A) (A) (A) (A) (A)
                 (A) (A) (A) (A) (A) (A) (A) (A) (A) (A) (A) (A)
                 (A) (A) (A) (A) (A) (A) (A) (A) (A) (A) (A) (A)
                 (A) (A) (A) (A) (A) (A) (A) (A) (A) (A) (A) (A)
                 (A) (A) (A) (A) (A) (A) (A) (A) (A) (A) (A) (A)
                 (A) (A) (A) (A) (A) (A) (A) (A) (A) (A) (A) (A)
                 (A) (A) (A) (A) (A) (A) (A) (A) (A) (A) (A) (A)
                 (A) (A) (A) (A) (A) (A) (A) (A) (A) (A) (A) (A)
                 (A) (A) (A) (A) (A) (A) (A) (A) (A) (A) (A) (A)
                 (A) (A) (A) (A) (A) (A) (A) (A) (A) (A) (A) (A)
                 (A) (A) (A) (A) (A) (A) (A) (A) (A) (A) (A) (A)
                 (A) (A) (A) (A) (A) (A) (A) (A) (A) (A) (A) (A)
                 (A) (A) (A) (A) (A) (A) (A) (A) (A) (A) (A) (A)
                 (A) (A) (A) (A) (A) (A) (A) (A) (A) (A) (A) (A)
                 (A) (A) (A) (A) (A) (A) (A) (A) (A) (A) (A) (A)
                 (A) (A) (A) (A) (A) (A) (A) (A) (A) (A) (A) (A)
                 (A) (A) (A) (A) (A) (A) (A) (A) (A) (A) (A) (A)
                 (A) (A) (A) (A) (A) (A) (A) (A) (A) (A) (A) (A)
                 (A) (A) (A) (A) (A) (A) (A) (A) (A) (A) (A) (A)
                 (A) (A) (A) (A) (A) (A) (A) (A) (A) (A) (A) (A)
                 (A) (A) (A) (A) (A) (A) (A) (A) (A) (A) (A) (A)
                 (A) (A) (A) (A) (A) (A) (A) (A) (A) (A) (A) (A)
                 (A) (A) (A) (A) (A) (A) (A) (A) (A) (A) (A) (A)
                 (A) (A) (A) (A) (A) (A) (A) (A) (A) (A) (A) (A)
                 (A) (A) (A) (A) (A) (A) (A) (A) (A) (A) (A) (A)
                 (A) (A) (A) (A) (A) (A) (A) (A) (A) (A) (A) (A)
                 (A) (A) (A) (A) (A) (A) (A) (A) (A) (A) (A) (A)
                 (A) (A) (A) (A) (A) (A) (A) (A) (A) (A) (A) (A)
                 (A) (A) (A) (A) (A) (A) (A) (A) (A) (A) (A) (A)
                 (A) (A) (A) (A) (A) (A) (A) (A) (A) (A) (A) (A)
                 (A) (A) (A) (A) (A) (A) (A) (A) (A) (A) (A) (A)
                 (A) (A) (A) (A) (A) (A) (A) (A) (A) (A) (A) (A)
                 (A) (A) (A) (A) (A) (A) (A) (A) (A) (A) (A) (A)
                 (A) (A) (A) (A) (A) (A) (A) (A) (A) (A) (A) (A)
                 (A) (A) (A) (A) (A) (A) (A) (A) (A) (A) (A) (A)
                 (A) (A) (A) (A) (A) (A) (A) (A) (A) (A) (A) (A)
                 (A) (A) (A) (A) (A) (A) (A) (A) (A) (A) (A) (A)
                 (A) (A) (A) (A) (A) (A) (A) (A) (A) (A) (A) (A)
                 (A) (A) (A) (A) (A) (A) (A) (A) (A) (A) (A) (A)
                 (A) (A) (A) (A) (A) (A) (A) (A) (A) (A) (A) (A)
                 (A) (A) (A) (A) (A) (A) (A) (A) (A) (A) (A) (A)
                 (A) (A) (A) (A) (A) (A) (A) (A) (A) (A) (A) (A)
                 (A) (A) (A) (A) (A) (A) (A) (A) (A) (A) (A) (A)
                 (A) (A) (A) (A) (A) (A) (A) (A) (A)
 The electronic state is 2-A.
 Alpha  occ. eigenvalues --  -19.72616 -19.72473 -10.55743 -10.55432 -10.54753
 Alpha  occ. eigenvalues --  -10.54630 -10.54624 -10.54620 -10.54614 -10.54582
 Alpha  occ. eigenvalues --  -10.54532 -10.54452 -10.54433 -10.54345 -10.54341
 Alpha  occ. eigenvalues --  -10.54087  -1.26523  -1.06112  -0.96936  -0.96318
 Alpha  occ. eigenvalues --   -0.90005  -0.85819  -0.84542  -0.84494  -0.80491
 Alpha  occ. eigenvalues --   -0.73611  -0.71105  -0.69224  -0.67796  -0.66484
 Alpha  occ. eigenvalues --   -0.63291  -0.59493  -0.59044  -0.57592  -0.55463
 Alpha  occ. eigenvalues --   -0.54682  -0.53401  -0.52289  -0.51264  -0.50435
 Alpha  occ. eigenvalues --   -0.49180  -0.48841  -0.46389  -0.45877  -0.45205
 Alpha  occ. eigenvalues --   -0.44139  -0.43014  -0.42081  -0.41829  -0.41212
 Alpha  occ. eigenvalues --   -0.40648  -0.39829  -0.38778  -0.35100  -0.31168
 Alpha  occ. eigenvalues --   -0.31077  -0.30179  -0.30016
 Alpha virt. eigenvalues --    0.00265   0.00853   0.00935   0.01257   0.01470
 Alpha virt. eigenvalues --    0.01682   0.01801   0.02534   0.02756   0.02985
 Alpha virt. eigenvalues --    0.04045   0.04334   0.04647   0.05129   0.05487
 Alpha virt. eigenvalues --    0.06528   0.06856   0.06972   0.07863   0.08287
 Alpha virt. eigenvalues --    0.09045   0.09252   0.09806   0.10593   0.10956
 Alpha virt. eigenvalues --    0.11792   0.12176   0.12466   0.12816   0.13179
 Alpha virt. eigenvalues --    0.13591   0.14019   0.14527   0.14711   0.15451
 Alpha virt. eigenvalues --    0.15828   0.16043   0.16208   0.16849   0.16972
 Alpha virt. eigenvalues --    0.17660   0.17992   0.18420   0.18715   0.19069
 Alpha virt. eigenvalues --    0.19384   0.19686   0.20085   0.20317   0.20464
 Alpha virt. eigenvalues --    0.20966   0.21045   0.21640   0.21763   0.22089
 Alpha virt. eigenvalues --    0.22432   0.22670   0.22998   0.23173   0.23675
 Alpha virt. eigenvalues --    0.23993   0.24475   0.24698   0.24923   0.25168
 Alpha virt. eigenvalues --    0.25459   0.26051   0.26543   0.26882   0.27059
 Alpha virt. eigenvalues --    0.27582   0.28046   0.28315   0.28658   0.29128
 Alpha virt. eigenvalues --    0.29861   0.31046   0.31904   0.32271   0.32824
 Alpha virt. eigenvalues --    0.32977   0.33396   0.34247   0.35282   0.35564
 Alpha virt. eigenvalues --    0.35612   0.35746   0.37182   0.37406   0.38064
 Alpha virt. eigenvalues --    0.38843   0.39359   0.40065   0.41102   0.41925
 Alpha virt. eigenvalues --    0.46289   0.46436   0.47776   0.48945   0.49956
 Alpha virt. eigenvalues --    0.51262   0.51984   0.52626   0.53107   0.53601
 Alpha virt. eigenvalues --    0.54110   0.54383   0.54700   0.55564   0.55704
 Alpha virt. eigenvalues --    0.56009   0.56333   0.56794   0.56964   0.57657
 Alpha virt. eigenvalues --    0.58323   0.58613   0.59395   0.60946   0.61364
 Alpha virt. eigenvalues --    0.61922   0.62608   0.63291   0.63592   0.64214
 Alpha virt. eigenvalues --    0.64884   0.65577   0.65607   0.65882   0.66430
 Alpha virt. eigenvalues --    0.67056   0.67393   0.67467   0.67861   0.68237
 Alpha virt. eigenvalues --    0.68421   0.69006   0.69179   0.69742   0.70410
 Alpha virt. eigenvalues --    0.70776   0.71180   0.71631   0.72053   0.72353
 Alpha virt. eigenvalues --    0.72879   0.73180   0.73546   0.74241   0.74332
 Alpha virt. eigenvalues --    0.74474   0.75086   0.75129   0.75560   0.75801
 Alpha virt. eigenvalues --    0.77276   0.77507   0.79304   0.79453   0.80504
 Alpha virt. eigenvalues --    0.81155   0.81262   0.82365   0.83606   0.84091
 Alpha virt. eigenvalues --    0.84548   0.84658   0.84918   0.85878   0.86524
 Alpha virt. eigenvalues --    0.87049   0.87808   0.89144   0.89789   0.91215
 Alpha virt. eigenvalues --    0.92040   0.93227   0.93723   0.95285   0.95501
 Alpha virt. eigenvalues --    0.97019   0.98806   0.99796   1.00917   1.01504
 Alpha virt. eigenvalues --    1.02323   1.03159   1.03750   1.03975   1.04492
 Alpha virt. eigenvalues --    1.05291   1.05558   1.05865   1.07142   1.08410
 Alpha virt. eigenvalues --    1.09331   1.09641   1.10144   1.11635   1.12528
 Alpha virt. eigenvalues --    1.12885   1.13832   1.13907   1.14450   1.15486
 Alpha virt. eigenvalues --    1.16175   1.16986   1.17654   1.19051   1.19891
 Alpha virt. eigenvalues --    1.20076   1.21728   1.22328   1.22836   1.24351
 Alpha virt. eigenvalues --    1.25505   1.26048   1.26367   1.27066   1.28145
 Alpha virt. eigenvalues --    1.28886   1.28971   1.30574   1.31274   1.32350
 Alpha virt. eigenvalues --    1.32664   1.33686   1.33899   1.34421   1.35209
 Alpha virt. eigenvalues --    1.35969   1.37077   1.37232   1.37968   1.38453
 Alpha virt. eigenvalues --    1.38747   1.39167   1.40052   1.40369   1.40831
 Alpha virt. eigenvalues --    1.42767   1.43337   1.43986   1.44677   1.45384
 Alpha virt. eigenvalues --    1.45744   1.46883   1.47433   1.48075   1.48616
 Alpha virt. eigenvalues --    1.49108   1.49299   1.50264   1.51460   1.51717
 Alpha virt. eigenvalues --    1.53137   1.54617   1.55833   1.56752   1.57876
 Alpha virt. eigenvalues --    1.58085   1.59934   1.62171   1.63091   1.64194
 Alpha virt. eigenvalues --    1.65960   1.66696   1.67688   1.68184   1.70826
 Alpha virt. eigenvalues --    1.71622   1.72136   1.72760   1.73555   1.74171
 Alpha virt. eigenvalues --    1.74797   1.76334   1.76363   1.77776   1.78088
 Alpha virt. eigenvalues --    1.79570   1.82134   1.83729   1.84226   1.85524
 Alpha virt. eigenvalues --    1.86974   1.89097   1.92236   2.00476   2.02396
 Alpha virt. eigenvalues --    2.02891   2.03420   2.04799   2.05771   2.06941
 Alpha virt. eigenvalues --    2.07993   2.09466   2.21940   2.22774   2.24531
 Alpha virt. eigenvalues --    2.29911   2.37155   2.43245   2.46781   2.52753
 Alpha virt. eigenvalues --    2.53988   2.54409   2.56307   2.58121   2.58731
 Alpha virt. eigenvalues --    2.60121   2.62069   2.63734   2.64831   2.65129
 Alpha virt. eigenvalues --    2.66302   2.68049   2.69562   2.69679   2.73292
 Alpha virt. eigenvalues --    2.73654   2.74096   2.75870   2.76033   2.76833
 Alpha virt. eigenvalues --    2.77080   2.77855   2.78021   2.78946   2.79401
 Alpha virt. eigenvalues --    2.80642   2.80765   2.81482   2.82059   2.82608
 Alpha virt. eigenvalues --    2.83643   2.83842   2.84161   2.85025   2.85377
 Alpha virt. eigenvalues --    2.85935   2.86819   2.87585   2.87772   2.88273
 Alpha virt. eigenvalues --    2.88525   2.89362   2.89685   2.90216   2.91280
 Alpha virt. eigenvalues --    2.91841   2.92408   2.92830   2.93733   2.94139
 Alpha virt. eigenvalues --    2.95343   2.95876   2.96910   2.98031   2.99115
 Alpha virt. eigenvalues --    2.99282   2.99933   3.00986   3.03134   3.04106
 Alpha virt. eigenvalues --    3.05995   3.07942   3.09243   3.10843   3.11281
 Alpha virt. eigenvalues --    3.11993   3.13558   3.13978   3.14879   3.16052
 Alpha virt. eigenvalues --    3.16328   3.16452   3.17993   3.18583   3.19070
 Alpha virt. eigenvalues --    3.19876   3.20290   3.20490   3.21241   3.21750
 Alpha virt. eigenvalues --    3.22381   3.23535   3.24719   3.25128   3.26310
 Alpha virt. eigenvalues --    3.27337   3.28338   3.29926   3.30336   3.30729
 Alpha virt. eigenvalues --    3.31877   3.32244   3.32811   3.34291   3.34959
 Alpha virt. eigenvalues --    3.35634   3.37225   3.38428   3.38768   3.39140
 Alpha virt. eigenvalues --    3.40280   3.40963   3.41822   3.42049   3.42844
 Alpha virt. eigenvalues --    3.43952   3.44017   3.44507   3.45248   3.45729
 Alpha virt. eigenvalues --    3.46072   3.46935   3.48416   3.48758   3.49566
 Alpha virt. eigenvalues --    3.51576   3.53165   3.53305   3.54190   3.55289
 Alpha virt. eigenvalues --    3.56540   3.57415   3.57821   3.58733   3.59283
 Alpha virt. eigenvalues --    3.60018   3.60985   3.61589   3.65677   3.68431
 Alpha virt. eigenvalues --    3.69285   3.70095   3.70736   3.72003   3.72193
 Alpha virt. eigenvalues --    3.72530   3.73208   3.74173   3.74567   3.76413
 Alpha virt. eigenvalues --    3.76654   3.77765   3.78809   3.79217   3.79738
 Alpha virt. eigenvalues --    3.80528   3.82031   3.83006   3.83852   3.84572
 Alpha virt. eigenvalues --    3.85271   3.85744   3.87263   3.88439   3.89341
 Alpha virt. eigenvalues --    3.89806   3.89951   3.91886   3.93457   3.93953
 Alpha virt. eigenvalues --    3.94062   3.96012   3.97713   3.98827   4.01328
 Alpha virt. eigenvalues --    4.01923   4.05068   4.05457   4.05752   4.06484
 Alpha virt. eigenvalues --    4.07906   4.08819   4.09197   4.09323   4.10179
 Alpha virt. eigenvalues --    4.11259   4.12231   4.13122   4.13956   4.16097
 Alpha virt. eigenvalues --    4.16903   4.20130   4.20969   4.21550   4.24255
 Alpha virt. eigenvalues --    4.25337   4.27190   4.27473   4.29230   4.29906
 Alpha virt. eigenvalues --    4.30441   4.32115   4.32541   4.34091   4.35788
 Alpha virt. eigenvalues --    4.36650   4.36784   4.37612   4.38419   4.39762
 Alpha virt. eigenvalues --    4.40008   4.41267   4.42295   4.43062   4.43602
 Alpha virt. eigenvalues --    4.44462   4.44876   4.46133   4.46694   4.47731
 Alpha virt. eigenvalues --    4.48503   4.49407   4.50089   4.51670   4.53783
 Alpha virt. eigenvalues --    4.54700   4.56302   4.58336   4.60779   4.61706
 Alpha virt. eigenvalues --    4.62507   4.64116   4.64887   4.66265   4.66925
 Alpha virt. eigenvalues --    4.68843   4.69400   4.70954   4.73820   4.75058
 Alpha virt. eigenvalues --    4.75505   4.76639   4.79530   4.82173   4.84709
 Alpha virt. eigenvalues --    4.87088   4.89841   4.93504   4.94781   4.98500
 Alpha virt. eigenvalues --    4.99761   5.01125   5.01663   5.02776   5.04151
 Alpha virt. eigenvalues --    5.05229   5.05952   5.06719   5.07755   5.08918
 Alpha virt. eigenvalues --    5.11842   5.13812   5.17954   5.18875   5.19489
 Alpha virt. eigenvalues --    5.21256   5.22895   5.23470   5.27574   5.31973
 Alpha virt. eigenvalues --    5.36447   5.38281   5.41228   5.41958   5.44994
 Alpha virt. eigenvalues --    5.46834   5.47400   5.55405   5.62933   5.64243
 Alpha virt. eigenvalues --    5.65488   5.68270   5.68966   5.71114   5.72987
 Alpha virt. eigenvalues --    5.74005   5.74895   5.75241   5.79426   5.80984
 Alpha virt. eigenvalues --    5.90369   5.98904   6.09368   6.14751   6.41551
 Alpha virt. eigenvalues --    6.49189   6.49323   6.67183   6.71641   6.85475
 Alpha virt. eigenvalues --    6.90290   6.95586   7.01810   7.19413   7.28971
 Alpha virt. eigenvalues --    7.40615   7.44382   7.83903   8.08173  23.91095
 Alpha virt. eigenvalues --   23.97460  24.44850  24.47683  24.49233  24.50055
 Alpha virt. eigenvalues --   24.53000  24.54827  24.71248  24.73021  24.73638
 Alpha virt. eigenvalues --   24.75961  25.18165  25.18852  49.96761  49.98663
  Beta  occ. eigenvalues --  -19.72125 -19.71122 -10.55737 -10.55432 -10.54751
  Beta  occ. eigenvalues --  -10.54630 -10.54619 -10.54615 -10.54606 -10.54582
  Beta  occ. eigenvalues --  -10.54525 -10.54452 -10.54433 -10.54345 -10.54323
  Beta  occ. eigenvalues --  -10.53882  -1.23482  -1.02034  -0.96860  -0.96123
  Beta  occ. eigenvalues --   -0.89921  -0.85736  -0.84494  -0.84097  -0.80407
  Beta  occ. eigenvalues --   -0.73502  -0.69953  -0.69222  -0.67364  -0.66306
  Beta  occ. eigenvalues --   -0.62619  -0.59268  -0.58517  -0.56785  -0.54680
  Beta  occ. eigenvalues --   -0.53346  -0.52166  -0.51096  -0.50401  -0.49124
  Beta  occ. eigenvalues --   -0.48829  -0.46940  -0.46283  -0.45294  -0.44962
  Beta  occ. eigenvalues --   -0.43966  -0.42083  -0.41808  -0.40668  -0.40110
  Beta  occ. eigenvalues --   -0.39850  -0.38675  -0.35962  -0.31165  -0.31039
  Beta  occ. eigenvalues --   -0.30202  -0.29964
  Beta virt. eigenvalues --   -0.11539   0.00429   0.00979   0.01128   0.01375
  Beta virt. eigenvalues --    0.01517   0.01822   0.02001   0.02707   0.02832
  Beta virt. eigenvalues --    0.03362   0.04161   0.04441   0.05164   0.05223
  Beta virt. eigenvalues --    0.05552   0.06613   0.06892   0.07192   0.08055
  Beta virt. eigenvalues --    0.08350   0.09149   0.09332   0.09944   0.10732
  Beta virt. eigenvalues --    0.11007   0.11860   0.12228   0.12601   0.12993
  Beta virt. eigenvalues --    0.13190   0.13795   0.14106   0.14603   0.14854
  Beta virt. eigenvalues --    0.15523   0.15934   0.16113   0.16238   0.16893
  Beta virt. eigenvalues --    0.17057   0.17716   0.18048   0.18517   0.18762
  Beta virt. eigenvalues --    0.19138   0.19431   0.19814   0.20148   0.20411
  Beta virt. eigenvalues --    0.20622   0.21020   0.21084   0.21648   0.21807
  Beta virt. eigenvalues --    0.22101   0.22454   0.22732   0.23064   0.23227
  Beta virt. eigenvalues --    0.23713   0.24030   0.24536   0.24722   0.24957
  Beta virt. eigenvalues --    0.25193   0.25474   0.26092   0.26580   0.26888
  Beta virt. eigenvalues --    0.27086   0.27597   0.28099   0.28409   0.28666
  Beta virt. eigenvalues --    0.29142   0.29908   0.31115   0.31941   0.32254
  Beta virt. eigenvalues --    0.32870   0.33194   0.33760   0.34331   0.35298
  Beta virt. eigenvalues --    0.35655   0.35870   0.35976   0.37189   0.37421
  Beta virt. eigenvalues --    0.38132   0.38881   0.39454   0.40136   0.41199
  Beta virt. eigenvalues --    0.42182   0.46390   0.46557   0.47855   0.48968
  Beta virt. eigenvalues --    0.50000   0.51291   0.52013   0.52734   0.53120
  Beta virt. eigenvalues --    0.53672   0.54154   0.54424   0.54721   0.55584
  Beta virt. eigenvalues --    0.55717   0.56036   0.56355   0.56837   0.57010
  Beta virt. eigenvalues --    0.57726   0.58378   0.58673   0.59424   0.61185
  Beta virt. eigenvalues --    0.61400   0.62131   0.62622   0.63361   0.63650
  Beta virt. eigenvalues --    0.64324   0.64899   0.65605   0.65628   0.65941
  Beta virt. eigenvalues --    0.66454   0.67113   0.67401   0.67479   0.67887
  Beta virt. eigenvalues --    0.68266   0.68487   0.69092   0.69241   0.69799
  Beta virt. eigenvalues --    0.70436   0.70827   0.71218   0.71662   0.72076
  Beta virt. eigenvalues --    0.72481   0.72901   0.73196   0.73595   0.74283
  Beta virt. eigenvalues --    0.74384   0.74672   0.75135   0.75199   0.75616
  Beta virt. eigenvalues --    0.75818   0.77355   0.77567   0.79329   0.79508
  Beta virt. eigenvalues --    0.80536   0.81185   0.81301   0.82441   0.83740
  Beta virt. eigenvalues --    0.84113   0.84633   0.84686   0.84931   0.85910
  Beta virt. eigenvalues --    0.86574   0.87072   0.87924   0.89176   0.89964
  Beta virt. eigenvalues --    0.91304   0.92119   0.93326   0.93842   0.95379
  Beta virt. eigenvalues --    0.95545   0.97097   0.98848   0.99831   1.01112
  Beta virt. eigenvalues --    1.01568   1.02354   1.03327   1.03893   1.04055
  Beta virt. eigenvalues --    1.04544   1.05325   1.05937   1.06649   1.07175
  Beta virt. eigenvalues --    1.08430   1.09412   1.10058   1.10448   1.11868
  Beta virt. eigenvalues --    1.12670   1.13023   1.13851   1.14128   1.14833
  Beta virt. eigenvalues --    1.15557   1.16573   1.17045   1.18224   1.19679
  Beta virt. eigenvalues --    1.20016   1.20270   1.21753   1.22495   1.22888
  Beta virt. eigenvalues --    1.24511   1.25629   1.26130   1.26707   1.27156
  Beta virt. eigenvalues --    1.28302   1.28963   1.29155   1.30634   1.31369
  Beta virt. eigenvalues --    1.32360   1.32787   1.33736   1.33997   1.34467
  Beta virt. eigenvalues --    1.35283   1.35980   1.37111   1.37443   1.38083
  Beta virt. eigenvalues --    1.38514   1.38828   1.39313   1.40101   1.40409
  Beta virt. eigenvalues --    1.40964   1.42799   1.43420   1.44055   1.44737
  Beta virt. eigenvalues --    1.45501   1.45821   1.47178   1.47970   1.48144
  Beta virt. eigenvalues --    1.48740   1.49301   1.49348   1.50483   1.51640
  Beta virt. eigenvalues --    1.52016   1.53404   1.54787   1.56203   1.57082
  Beta virt. eigenvalues --    1.57941   1.58411   1.60161   1.62370   1.63180
  Beta virt. eigenvalues --    1.64607   1.66043   1.66735   1.67718   1.68255
  Beta virt. eigenvalues --    1.70969   1.71645   1.72339   1.72847   1.73586
  Beta virt. eigenvalues --    1.74202   1.74850   1.76371   1.76477   1.77872
  Beta virt. eigenvalues --    1.78179   1.79600   1.82460   1.84160   1.84730
  Beta virt. eigenvalues --    1.85642   1.87836   1.89119   1.92284   2.00716
  Beta virt. eigenvalues --    2.02469   2.02931   2.03425   2.05071   2.05804
  Beta virt. eigenvalues --    2.07045   2.08204   2.09631   2.22151   2.22789
  Beta virt. eigenvalues --    2.24666   2.30981   2.38196   2.43730   2.46841
  Beta virt. eigenvalues --    2.52824   2.54031   2.54417   2.56346   2.58136
  Beta virt. eigenvalues --    2.58849   2.60136   2.62174   2.63841   2.64872
  Beta virt. eigenvalues --    2.65165   2.66336   2.68072   2.69587   2.69726
  Beta virt. eigenvalues --    2.73024   2.73751   2.74077   2.75871   2.76069
  Beta virt. eigenvalues --    2.76862   2.77093   2.77880   2.78082   2.78971
  Beta virt. eigenvalues --    2.79445   2.80678   2.80791   2.81526   2.82100
  Beta virt. eigenvalues --    2.82718   2.83679   2.83896   2.84198   2.85096
  Beta virt. eigenvalues --    2.85415   2.85980   2.86865   2.87584   2.87782
  Beta virt. eigenvalues --    2.88318   2.88542   2.89379   2.89690   2.90322
  Beta virt. eigenvalues --    2.91320   2.91797   2.92419   2.92950   2.93732
  Beta virt. eigenvalues --    2.94188   2.95419   2.95895   2.96984   2.98104
  Beta virt. eigenvalues --    2.99122   2.99388   3.00019   3.01031   3.03158
  Beta virt. eigenvalues --    3.04337   3.05953   3.08013   3.09269   3.10855
  Beta virt. eigenvalues --    3.11332   3.12040   3.13582   3.14021   3.14918
  Beta virt. eigenvalues --    3.16090   3.16335   3.16507   3.18023   3.18726
  Beta virt. eigenvalues --    3.19101   3.19946   3.20299   3.20509   3.21412
  Beta virt. eigenvalues --    3.21790   3.22405   3.23563   3.24763   3.25148
  Beta virt. eigenvalues --    3.26342   3.27421   3.28351   3.29898   3.30354
  Beta virt. eigenvalues --    3.30638   3.31893   3.32090   3.32837   3.34306
  Beta virt. eigenvalues --    3.34992   3.35634   3.37272   3.38486   3.38817
  Beta virt. eigenvalues --    3.39226   3.40338   3.41055   3.41873   3.42079
  Beta virt. eigenvalues --    3.42923   3.43990   3.44090   3.44551   3.45267
  Beta virt. eigenvalues --    3.45749   3.46107   3.47024   3.48438   3.48811
  Beta virt. eigenvalues --    3.49619   3.51647   3.53232   3.53349   3.54268
  Beta virt. eigenvalues --    3.55374   3.56570   3.57348   3.57987   3.58817
  Beta virt. eigenvalues --    3.59317   3.60223   3.61053   3.61567   3.65661
  Beta virt. eigenvalues --    3.68448   3.69299   3.70082   3.70793   3.72080
  Beta virt. eigenvalues --    3.72227   3.72666   3.73340   3.74361   3.74630
  Beta virt. eigenvalues --    3.76446   3.76720   3.77874   3.78852   3.79257
  Beta virt. eigenvalues --    3.79793   3.80606   3.82098   3.83057   3.83899
  Beta virt. eigenvalues --    3.84656   3.85335   3.85878   3.87325   3.88490
  Beta virt. eigenvalues --    3.89357   3.89831   3.90020   3.91948   3.93504
  Beta virt. eigenvalues --    3.93979   3.94201   3.95976   3.97734   3.98873
  Beta virt. eigenvalues --    4.01335   4.01926   4.05025   4.05459   4.05696
  Beta virt. eigenvalues --    4.06468   4.07873   4.08807   4.09181   4.09323
  Beta virt. eigenvalues --    4.10175   4.11267   4.12254   4.13153   4.13964
  Beta virt. eigenvalues --    4.16118   4.16927   4.20158   4.20982   4.21560
  Beta virt. eigenvalues --    4.24270   4.25367   4.27240   4.27511   4.29248
  Beta virt. eigenvalues --    4.29966   4.30475   4.32203   4.32646   4.34126
  Beta virt. eigenvalues --    4.35792   4.36705   4.36807   4.37637   4.38503
  Beta virt. eigenvalues --    4.39855   4.40019   4.41329   4.42325   4.43120
  Beta virt. eigenvalues --    4.43667   4.44491   4.44957   4.46205   4.46759
  Beta virt. eigenvalues --    4.47763   4.48525   4.49470   4.50137   4.51709
  Beta virt. eigenvalues --    4.53801   4.54910   4.56363   4.58381   4.60881
  Beta virt. eigenvalues --    4.61862   4.62551   4.64183   4.64935   4.66391
  Beta virt. eigenvalues --    4.67098   4.69358   4.69544   4.71309   4.73832
  Beta virt. eigenvalues --    4.75140   4.75822   4.76664   4.79552   4.82219
  Beta virt. eigenvalues --    4.84842   4.87751   4.90213   4.93597   4.94836
  Beta virt. eigenvalues --    4.99010   5.00213   5.01661   5.03114   5.04288
  Beta virt. eigenvalues --    5.05166   5.06174   5.06764   5.07233   5.07975
  Beta virt. eigenvalues --    5.09009   5.11988   5.15766   5.18465   5.19504
  Beta virt. eigenvalues --    5.20426   5.21969   5.23363   5.25245   5.28629
  Beta virt. eigenvalues --    5.32081   5.36491   5.38299   5.41518   5.42200
  Beta virt. eigenvalues --    5.45259   5.46942   5.47647   5.55883   5.63101
  Beta virt. eigenvalues --    5.64534   5.65510   5.68280   5.69008   5.71166
  Beta virt. eigenvalues --    5.73135   5.74034   5.74926   5.75278   5.79588
  Beta virt. eigenvalues --    5.80995   5.90854   5.98973   6.09520   6.14752
  Beta virt. eigenvalues --    6.42024   6.49221   6.49485   6.74576   6.78915
  Beta virt. eigenvalues --    6.87557   6.92700   6.97201   7.03543   7.19929
  Beta virt. eigenvalues --    7.29912   7.44393   7.47535   7.85021   8.10138
  Beta virt. eigenvalues --   23.91093  23.97448  24.44851  24.47683  24.49233
  Beta virt. eigenvalues --   24.50057  24.53007  24.54828  24.71250  24.73027
  Beta virt. eigenvalues --   24.73638  24.75990  25.18167  25.18881  49.96529
  Beta virt. eigenvalues --   49.98150
          Condensed to atoms (all electrons):
               1          2          3          4          5          6
     1  C    8.668386  -0.463430   0.489197   0.003552   0.237446  -0.027779
     2  C   -0.463430   8.284553  -0.854408   0.363343  -1.462596   0.147579
     3  C    0.489197  -0.854408   9.650009   0.006234  -2.991318   0.119412
     4  H    0.003552   0.363343   0.006234   0.470952   0.017257  -0.002524
     5  C    0.237446  -1.462596  -2.991318   0.017257  15.710712  -0.165530
     6  H   -0.027779   0.147579   0.119412  -0.002524  -0.165530   0.493888
     7  C   -0.726270  -0.751199   1.995210   0.010066  -6.092134   0.011687
     8  H    0.004049  -0.016440  -0.042963  -0.000113   0.316435  -0.002274
     9  C   -2.508869   0.326503   0.222428  -0.025686  -3.615291   0.008146
    10  H    0.336623   0.083923  -0.035823  -0.006848  -0.007407   0.000180
    11  H   -0.060174  -0.008196  -0.000516  -0.000099  -0.003217   0.000047
    12  C    0.845805   0.518494  -2.171128   0.008026   4.856141   0.021066
    13  C   -0.500619   0.010124  -0.103029  -0.000214  -0.519115  -0.000582
    14  H   -0.020253  -0.001640   0.015388  -0.000000  -0.117218  -0.000042
    15  H   -0.009848  -0.000786   0.016118  -0.000002   0.122559  -0.000053
    16  C    0.247231  -0.069421   0.127157   0.000051  -0.653569  -0.000196
    17  H   -0.019974   0.001376   0.003455   0.000000   0.010526   0.000002
    18  H    0.009960  -0.002466   0.001184   0.000001   0.021172   0.000000
    19  C    0.037718   0.003847  -0.036480  -0.000004   0.029694  -0.000111
    20  C    0.015536  -0.001557   0.000558  -0.000000  -0.055777  -0.000011
    21  H    0.000111  -0.000029  -0.000275  -0.000000   0.000666  -0.000000
    22  C   -0.067182  -0.002536   0.015212   0.000006   0.107785   0.000029
    23  C    0.017390  -0.000552   0.000657   0.000000  -0.026259   0.000004
    24  H   -0.000219  -0.000034   0.000113  -0.000000   0.000768  -0.000000
    25  C   -0.002483   0.000030  -0.000322  -0.000000   0.006479  -0.000001
    26  H   -0.000015   0.000001  -0.000002  -0.000000   0.000053   0.000000
    27  H   -0.000019   0.000001  -0.000002  -0.000000   0.000128   0.000000
    28  H   -0.000001   0.000000  -0.000001  -0.000000   0.000011   0.000000
    29  O    0.020222  -0.153084   0.309703   0.002047  -0.120207  -0.183630
    30  O   -0.000523  -0.044456  -0.001349  -0.000593   0.109952  -0.018400
    31  H    0.000951   0.017093   0.039511   0.000015  -0.053261  -0.002047
               7          8          9         10         11         12
     1  C   -0.726270   0.004049  -2.508869   0.336623  -0.060174   0.845805
     2  C   -0.751199  -0.016440   0.326503   0.083923  -0.008196   0.518494
     3  C    1.995210  -0.042963   0.222428  -0.035823  -0.000516  -2.171128
     4  H    0.010066  -0.000113  -0.025686  -0.006848  -0.000099   0.008026
     5  C   -6.092134   0.316435  -3.615291  -0.007407  -0.003217   4.856141
     6  H    0.011687  -0.002274   0.008146   0.000180   0.000047   0.021066
     7  C   17.972916   0.023921   1.616253  -0.003160   0.107744 -11.300361
     8  H    0.023921   0.471389  -0.010903   0.000045  -0.000128   0.098507
     9  C    1.616253  -0.010903  11.378322  -0.011716   0.330410  -1.729503
    10  H   -0.003160   0.000045  -0.011716   0.486464  -0.006281   0.017706
    11  H    0.107744  -0.000128   0.330410  -0.006281   0.470366  -0.046238
    12  C  -11.300361   0.098507  -1.729503   0.017706  -0.046238  17.834888
    13  C    1.188634  -0.006050   0.587892  -0.002871   0.041724  -1.719234
    14  H    0.114020  -0.000677   0.032067   0.000007   0.000362   0.305456
    15  H   -0.076608  -0.000786  -0.087413   0.000008   0.000272   0.435320
    16  C    0.904308   0.005208   0.100699  -0.001201   0.007226  -1.219482
    17  H   -0.002019   0.000020   0.003902   0.000011  -0.003385  -0.057528
    18  H   -0.053743   0.000011  -0.038719   0.000009  -0.002241   0.122595
    19  C   -0.186305   0.000474   0.056904   0.000007  -0.003387   0.210342
    20  C    0.167113   0.000270   0.051426  -0.000005  -0.000354  -0.226398
    21  H   -0.008930   0.000002  -0.000145  -0.000000   0.000006   0.008618
    22  C    0.162589  -0.001156  -0.180952  -0.000039   0.005250   0.189891
    23  C   -0.068291   0.000149   0.051217  -0.000001  -0.000635   0.094920
    24  H   -0.000551   0.000000  -0.000993   0.000000   0.000004   0.011436
    25  C    0.008008  -0.000058  -0.010302  -0.000000   0.000127   0.020856
    26  H    0.000004  -0.000000  -0.000202   0.000000   0.000000  -0.000828
    27  H   -0.000114  -0.000000  -0.000232   0.000000   0.000000   0.000044
    28  H   -0.000079  -0.000000  -0.000014   0.000000   0.000000  -0.000570
    29  O    0.017233   0.001900   0.001287  -0.000043  -0.000008  -0.020462
    30  O   -0.003144  -0.001187   0.001957  -0.000007   0.000001   0.002263
    31  H   -0.003101   0.000102   0.000379   0.000000  -0.000000  -0.001685
              13         14         15         16         17         18
     1  C   -0.500619  -0.020253  -0.009848   0.247231  -0.019974   0.009960
     2  C    0.010124  -0.001640  -0.000786  -0.069421   0.001376  -0.002466
     3  C   -0.103029   0.015388   0.016118   0.127157   0.003455   0.001184
     4  H   -0.000214  -0.000000  -0.000002   0.000051   0.000000   0.000001
     5  C   -0.519115  -0.117218   0.122559  -0.653569   0.010526   0.021172
     6  H   -0.000582  -0.000042  -0.000053  -0.000196   0.000002   0.000000
     7  C    1.188634   0.114020  -0.076608   0.904308  -0.002019  -0.053743
     8  H   -0.006050  -0.000677  -0.000786   0.005208   0.000020   0.000011
     9  C    0.587892   0.032067  -0.087413   0.100699   0.003902  -0.038719
    10  H   -0.002871   0.000007   0.000008  -0.001201   0.000011   0.000009
    11  H    0.041724   0.000362   0.000272   0.007226  -0.003385  -0.002241
    12  C   -1.719234   0.305456   0.435320  -1.219482  -0.057528   0.122595
    13  C    7.745323  -0.020732  -0.014961  -0.959841   0.464924   0.364085
    14  H   -0.020732   0.479069  -0.036280   0.037371   0.004192  -0.006802
    15  H   -0.014961  -0.036280   0.517305  -0.075807  -0.005430   0.004389
    16  C   -0.959841   0.037371  -0.075807   7.818427  -0.032665  -0.155172
    17  H    0.464924   0.004192  -0.005430  -0.032665   0.450445  -0.027772
    18  H    0.364085  -0.006802   0.004389  -0.155172  -0.027772   0.507317
    19  C   -0.224903   0.001781   0.027854   0.180204   0.033046  -0.085864
    20  C   -0.082234  -0.014354   0.015703   0.129797  -0.016779  -0.003590
    21  H    0.076593   0.000025  -0.000845   0.041562  -0.002479   0.000189
    22  C    0.502198   0.009539  -0.001881  -1.185123  -0.023325   0.154040
    23  C   -0.305321   0.003637  -0.010700   0.420144  -0.003481   0.017057
    24  H    0.039428   0.000042   0.000011  -0.008017   0.000451   0.001485
    25  C   -0.093831   0.002217   0.002943  -0.382442   0.001333   0.002760
    26  H    0.002050   0.000008   0.000002   0.004345   0.000009  -0.000035
    27  H   -0.002325   0.000004   0.000018   0.002270   0.000009   0.000010
    28  H    0.005119   0.000000   0.000001   0.013017  -0.000000  -0.000002
    29  O    0.000113   0.000013   0.000038   0.000245  -0.000000  -0.000000
    30  O    0.000057  -0.000004   0.000002  -0.000026  -0.000000  -0.000000
    31  H   -0.000038   0.000000   0.000001  -0.000003   0.000000   0.000000
              19         20         21         22         23         24
     1  C    0.037718   0.015536   0.000111  -0.067182   0.017390  -0.000219
     2  C    0.003847  -0.001557  -0.000029  -0.002536  -0.000552  -0.000034
     3  C   -0.036480   0.000558  -0.000275   0.015212   0.000657   0.000113
     4  H   -0.000004  -0.000000  -0.000000   0.000006   0.000000  -0.000000
     5  C    0.029694  -0.055777   0.000666   0.107785  -0.026259   0.000768
     6  H   -0.000111  -0.000011  -0.000000   0.000029   0.000004  -0.000000
     7  C   -0.186305   0.167113  -0.008930   0.162589  -0.068291  -0.000551
     8  H    0.000474   0.000270   0.000002  -0.001156   0.000149   0.000000
     9  C    0.056904   0.051426  -0.000145  -0.180952   0.051217  -0.000993
    10  H    0.000007  -0.000005  -0.000000  -0.000039  -0.000001   0.000000
    11  H   -0.003387  -0.000354   0.000006   0.005250  -0.000635   0.000004
    12  C    0.210342  -0.226398   0.008618   0.189891   0.094920   0.011436
    13  C   -0.224903  -0.082234   0.076593   0.502198  -0.305321   0.039428
    14  H    0.001781  -0.014354   0.000025   0.009539   0.003637   0.000042
    15  H    0.027854   0.015703  -0.000845  -0.001881  -0.010700   0.000011
    16  C    0.180204   0.129797   0.041562  -1.185123   0.420144  -0.008017
    17  H    0.033046  -0.016779  -0.002479  -0.023325  -0.003481   0.000451
    18  H   -0.085864  -0.003590   0.000189   0.154040   0.017057   0.001485
    19  C    7.882877  -0.319618   0.276736  -1.982568   0.106839  -0.016072
    20  C   -0.319618   6.010307  -0.001812  -0.269953   0.249295  -0.001287
    21  H    0.276736  -0.001812   0.473127   0.007737  -0.000591  -0.000111
    22  C   -1.982568  -0.269953   0.007737   9.070882  -0.845759   0.311823
    23  C    0.106839   0.249295  -0.000591  -0.845759   6.011654   0.048270
    24  H   -0.016072  -0.001287  -0.000111   0.311823   0.048270   0.481076
    25  C    0.047683   0.357757  -0.020262   0.295751   0.275197  -0.007409
    26  H   -0.006802  -0.007237   0.000047   0.036736   0.306789  -0.006746
    27  H    0.026580   0.312145  -0.006649  -0.001480  -0.011102   0.000048
    28  H   -0.009006   0.018085  -0.000102  -0.012818   0.025475  -0.000104
    29  O    0.000034   0.000010   0.000000  -0.000019  -0.000002   0.000000
    30  O   -0.000002  -0.000000  -0.000000   0.000001  -0.000001   0.000000
    31  H    0.000001   0.000000  -0.000000  -0.000000  -0.000000   0.000000
              25         26         27         28         29         30
     1  C   -0.002483  -0.000015  -0.000019  -0.000001   0.020222  -0.000523
     2  C    0.000030   0.000001   0.000001   0.000000  -0.153084  -0.044456
     3  C   -0.000322  -0.000002  -0.000002  -0.000001   0.309703  -0.001349
     4  H   -0.000000  -0.000000  -0.000000  -0.000000   0.002047  -0.000593
     5  C    0.006479   0.000053   0.000128   0.000011  -0.120207   0.109952
     6  H   -0.000001   0.000000   0.000000   0.000000  -0.183630  -0.018400
     7  C    0.008008   0.000004  -0.000114  -0.000079   0.017233  -0.003144
     8  H   -0.000058  -0.000000  -0.000000  -0.000000   0.001900  -0.001187
     9  C   -0.010302  -0.000202  -0.000232  -0.000014   0.001287   0.001957
    10  H   -0.000000   0.000000   0.000000   0.000000  -0.000043  -0.000007
    11  H    0.000127   0.000000   0.000000   0.000000  -0.000008   0.000001
    12  C    0.020856  -0.000828   0.000044  -0.000570  -0.020462   0.002263
    13  C   -0.093831   0.002050  -0.002325   0.005119   0.000113   0.000057
    14  H    0.002217   0.000008   0.000004   0.000000   0.000013  -0.000004
    15  H    0.002943   0.000002   0.000018   0.000001   0.000038   0.000002
    16  C   -0.382442   0.004345   0.002270   0.013017   0.000245  -0.000026
    17  H    0.001333   0.000009   0.000009  -0.000000  -0.000000  -0.000000
    18  H    0.002760  -0.000035   0.000010  -0.000002  -0.000000  -0.000000
    19  C    0.047683  -0.006802   0.026580  -0.009006   0.000034  -0.000002
    20  C    0.357757  -0.007237   0.312145   0.018085   0.000010  -0.000000
    21  H   -0.020262   0.000047  -0.006649  -0.000102   0.000000  -0.000000
    22  C    0.295751   0.036736  -0.001480  -0.012818  -0.000019   0.000001
    23  C    0.275197   0.306789  -0.011102   0.025475  -0.000002  -0.000001
    24  H   -0.007409  -0.006746   0.000048  -0.000104   0.000000   0.000000
    25  C    5.229520   0.043335   0.052416   0.341819   0.000000   0.000000
    26  H    0.043335   0.489815  -0.000072  -0.006799  -0.000000   0.000000
    27  H    0.052416  -0.000072   0.489832  -0.006801  -0.000000   0.000000
    28  H    0.341819  -0.006799  -0.006801   0.485335  -0.000000   0.000000
    29  O    0.000000  -0.000000  -0.000000  -0.000000   8.358351   0.083309
    30  O    0.000000   0.000000   0.000000   0.000000   0.083309   7.825609
    31  H    0.000000  -0.000000  -0.000000   0.000000  -0.024708   0.242098
              31
     1  C    0.000951
     2  C    0.017093
     3  C    0.039511
     4  H    0.000015
     5  C   -0.053261
     6  H   -0.002047
     7  C   -0.003101
     8  H    0.000102
     9  C    0.000379
    10  H    0.000000
    11  H   -0.000000
    12  C   -0.001685
    13  C   -0.000038
    14  H    0.000000
    15  H    0.000001
    16  C   -0.000003
    17  H    0.000000
    18  H    0.000000
    19  C    0.000001
    20  C    0.000000
    21  H   -0.000000
    22  C   -0.000000
    23  C   -0.000000
    24  H    0.000000
    25  C    0.000000
    26  H   -0.000000
    27  H   -0.000000
    28  H    0.000000
    29  O   -0.024708
    30  O    0.242098
    31  H    0.519187
          Atomic-Atomic Spin Densities.
               1          2          3          4          5          6
     1  C    0.007205  -0.089297   0.100217   0.002232  -0.089658  -0.009984
     2  C   -0.089297   0.279926  -0.346978  -0.000359   0.292470   0.021940
     3  C    0.100217  -0.346978   0.687580   0.004287  -0.251880  -0.070445
     4  H    0.002232  -0.000359   0.004287   0.002419  -0.006319  -0.000953
     5  C   -0.089658   0.292470  -0.251880  -0.006319  -0.141631   0.072493
     6  H   -0.009984   0.021940  -0.070445  -0.000953   0.072493  -0.008873
     7  C    0.047707  -0.135832   0.127762  -0.000005   0.032019   0.002018
     8  H    0.000992  -0.002366   0.000747   0.000009   0.005123  -0.000614
     9  C    0.049078  -0.085333  -0.019604  -0.000462   0.103537   0.002832
    10  H    0.003394  -0.001949   0.003949   0.000143  -0.001212  -0.000035
    11  H   -0.001760   0.001275  -0.002714  -0.000008   0.000225   0.000013
    12  C   -0.038126   0.128682  -0.174862  -0.000236   0.087182   0.011483
    13  C    0.006167   0.002846  -0.020106  -0.000033   0.020629   0.000157
    14  H   -0.000185  -0.000166   0.000277  -0.000000  -0.002470  -0.000006
    15  H    0.000195  -0.000550   0.002225   0.000000  -0.000123  -0.000028
    16  C    0.003573  -0.008999   0.015519   0.000005  -0.001625  -0.000124
    17  H   -0.000247  -0.000102   0.000065   0.000000  -0.000418   0.000000
    18  H    0.000131  -0.000087   0.000202   0.000000   0.000208  -0.000001
    19  C    0.000010  -0.000456   0.001239   0.000001  -0.002977  -0.000006
    20  C    0.000023  -0.000616   0.001728   0.000000  -0.001297  -0.000004
    21  H   -0.000002  -0.000010   0.000018   0.000000  -0.000038  -0.000000
    22  C   -0.000595   0.000853  -0.001860  -0.000000   0.001309   0.000002
    23  C    0.000158   0.000027  -0.000023  -0.000000   0.000721  -0.000001
    24  H   -0.000009  -0.000005   0.000008   0.000000  -0.000024  -0.000000
    25  C   -0.000040   0.000049  -0.000129  -0.000000  -0.000175   0.000000
    26  H   -0.000000   0.000000  -0.000000  -0.000000  -0.000000   0.000000
    27  H   -0.000000   0.000000  -0.000000  -0.000000  -0.000002   0.000000
    28  H    0.000000  -0.000000   0.000000   0.000000   0.000000  -0.000000
    29  O    0.013007  -0.036332   0.068939   0.001087  -0.098290  -0.025855
    30  O   -0.001326   0.008767  -0.013331  -0.000137   0.016014   0.016173
    31  H    0.000034  -0.000222  -0.000293   0.000001   0.000445   0.000389
               7          8          9         10         11         12
     1  C    0.047707   0.000992   0.049078   0.003394  -0.001760  -0.038126
     2  C   -0.135832  -0.002366  -0.085333  -0.001949   0.001275   0.128682
     3  C    0.127762   0.000747  -0.019604   0.003949  -0.002714  -0.174862
     4  H   -0.000005   0.000009  -0.000462   0.000143  -0.000008  -0.000236
     5  C    0.032019   0.005123   0.103537  -0.001212   0.000225   0.087182
     6  H    0.002018  -0.000614   0.002832  -0.000035   0.000013   0.011483
     7  C    0.261066  -0.005516  -0.072299   0.000566  -0.001979  -0.247500
[...]
    D6       -3.12249  -0.00068  -0.00509  -0.01797  -0.02342   3.13727
    D7       -3.14115   0.00017   0.00213  -0.02723  -0.02563   3.11640
    D8        0.01302  -0.00038  -0.00125  -0.03500  -0.03658  -0.02355
    D9        0.01675  -0.00056  -0.01214   0.07270   0.06048   0.07724
   D10       -3.13809  -0.00013  -0.00361   0.05541   0.05205  -3.08604
   D11       -3.14119  -0.00004  -0.00211   0.02655   0.02409  -3.11710
   D12       -0.01285   0.00039   0.00642   0.00926   0.01566   0.00281
   D13       -0.00182   0.00013   0.00212  -0.01849  -0.01616  -0.01798
   D14        3.12744   0.00051   0.00742  -0.04784  -0.04021   3.08724
   D15       -3.13023  -0.00029  -0.00638  -0.00100  -0.00730  -3.13753
   D16       -0.00096   0.00009  -0.00107  -0.03034  -0.03134  -0.03230
   D17        1.71568   0.00037   0.12946   0.14357   0.27308   1.98876
   D18       -1.43907   0.00078   0.13793   0.12570   0.26357  -1.17550
   D19       -0.01068   0.00031   0.00803  -0.04915  -0.04095  -0.05163
   D20        3.11625   0.00056   0.01267  -0.02865  -0.01627   3.09997
   D21       -3.13999  -0.00007   0.00275  -0.01978  -0.01667   3.12653
   D22       -0.01307   0.00018   0.00738   0.00072   0.00801  -0.00506
   D23       -1.44471   0.00136   0.13099  -0.04056   0.09043  -1.35428
   D24        0.00834  -0.00031  -0.00823   0.06331   0.05492   0.06326
   D25        3.13719   0.00025  -0.00481   0.07109   0.06599  -3.08000
   D26       -3.11794  -0.00057  -0.01307   0.04225   0.02893  -3.08901
   D27        0.01092  -0.00002  -0.00964   0.05003   0.04000   0.05092
   D28        3.00328   0.00016   0.03685   0.18407   0.22101  -3.05890
   D29        0.85502   0.00029   0.03966   0.18117   0.22091   1.07593
   D30       -1.14374   0.00020   0.03924   0.18613   0.22549  -0.91825
   D31       -0.15374   0.00043   0.04172   0.20546   0.24708   0.09334
   D32       -2.30199   0.00055   0.04453   0.20255   0.24697  -2.05502
   D33        1.98242   0.00047   0.04411   0.20752   0.25156   2.23398
   D34       -3.09929   0.00064   0.00596  -0.09044  -0.08453   3.09936
   D35        1.05977   0.00065   0.00436  -0.06997  -0.06562   0.99415
   D36       -0.98338   0.00050   0.00207  -0.05844  -0.05632  -1.03970
   D37       -0.95029   0.00007   0.00411  -0.09578  -0.09172  -1.04201
   D38       -3.07441   0.00007   0.00250  -0.07531  -0.07281   3.13596
   D39        1.16562  -0.00008   0.00022  -0.06377  -0.06351   1.10211
   D40        1.04822   0.00011   0.00340  -0.10172  -0.09836   0.94986
   D41       -1.07590   0.00011   0.00179  -0.08125  -0.07945  -1.15535
   D42       -3.11905  -0.00004  -0.00049  -0.06971  -0.07015   3.09398
   D43       -1.56327   0.00024   0.03120  -0.01432   0.01699  -1.54628
   D44        1.54969   0.00013   0.02532   0.02097   0.04637   1.59605
   D45        0.56132   0.00015   0.03166  -0.02562   0.00603   0.56736
   D46       -2.60891   0.00005   0.02578   0.00966   0.03541  -2.57349
   D47        2.60837  -0.00001   0.03278  -0.04152  -0.00880   2.59957
   D48       -0.56185  -0.00011   0.02691  -0.00624   0.02058  -0.54128
   D49        3.11145  -0.00003  -0.00518   0.04559   0.03983  -3.13190
   D50       -0.04787   0.00024  -0.00125   0.04880   0.04714  -0.00073
   D51       -0.00213   0.00008   0.00063   0.01040   0.01111   0.00898
   D52        3.12174   0.00035   0.00456   0.01361   0.01842   3.14016
   D53       -3.10811  -0.00013   0.00297  -0.03498  -0.03253  -3.14064
   D54        0.03691   0.00013   0.00151  -0.00510  -0.00407   0.03284
   D55        0.00553  -0.00022  -0.00273  -0.00111  -0.00383   0.00170
   D56       -3.13263   0.00003  -0.00419   0.02877   0.02462  -3.10801
   D57       -0.00289   0.00010   0.00193  -0.01302  -0.01119  -0.01408
   D58        3.13202   0.00023   0.00105   0.00078   0.00190   3.13392
   D59       -3.12669  -0.00017  -0.00200  -0.01650  -0.01867   3.13782
   D60        0.00822  -0.00004  -0.00289  -0.00270  -0.00558   0.00264
   D61        0.00454  -0.00014  -0.00242   0.00607   0.00365   0.00819
   D62        3.13409   0.00000  -0.00054   0.00762   0.00702   3.14111
   D63       -3.13031  -0.00027  -0.00153  -0.00799  -0.00944  -3.13975
   D64       -0.00075  -0.00013   0.00035  -0.00643  -0.00608  -0.00683
   D65       -0.00393   0.00019   0.00226  -0.00564  -0.00347  -0.00740
   D66       -3.13779   0.00012  -0.00090   0.02588   0.02478  -3.11301
   D67        3.13423  -0.00008   0.00372  -0.03557  -0.03201   3.10222
   D68        0.00037  -0.00014   0.00057  -0.00405  -0.00376  -0.00339
   D69       -0.00117  -0.00000   0.00035   0.00314   0.00356   0.00239
   D70       -3.13076  -0.00014  -0.00153   0.00162   0.00023  -3.13053
   D71        3.13268   0.00006   0.00351  -0.02851  -0.02527   3.10741
   D72        0.00309  -0.00008   0.00163  -0.03004  -0.02861  -0.02552
   D73        2.28130  -0.00007  -0.20850  -0.27555  -0.48405   1.79725
         Item               Value     Threshold  Converged?
 Maximum Force            0.003223     0.002500     NO 
 RMS     Force            0.000502     0.001667     YES
 Maximum Displacement     1.248634     0.010000     NO 
 RMS     Displacement     0.213657     0.006667     NO 
 Predicted change in Energy=-1.187245D-03
 GradGradGradGradGradGradGradGradGradGradGradGradGradGradGradGradGradGrad

                          Input orientation:                          
 ---------------------------------------------------------------------
 Center     Atomic      Atomic             Coordinates (Angstroms)
 Number     Number       Type             X           Y           Z
 ---------------------------------------------------------------------
      1          6           0       -6.661471   -1.911768    0.244522
      2          6           0       -7.664072   -1.026465   -0.081373
      3          6           0       -7.378279    0.315515   -0.311778
      4          1           0       -8.692557   -1.365165   -0.111597
      5          6           0       -6.047842    0.699719   -0.293098
      6          1           0       -8.178403    1.020643   -0.517966
      7          6           0       -5.017338   -0.176789   -0.038941
      8          1           0       -5.809407    1.733385   -0.522303
      9          6           0       -5.336891   -1.491979    0.270855
     10          1           0       -6.903686   -2.938366    0.462655
     11          1           0       -4.569278   -2.201540    0.532666
     12          6           0       -3.610760    0.355223   -0.101547
     13          6           0       -2.504154   -0.673202    0.075724
     14          1           0       -3.501625    1.133450    0.656878
     15          1           0       -3.458776    0.861950   -1.057947
     16          6           0       -1.136747   -0.070194   -0.057859
     17          1           0       -2.612577   -1.451077   -0.672443
     18          1           0       -2.608880   -1.156783    1.045702
     19          6           0       -0.556788    0.001240   -1.312926
     20          6           0        0.706867    0.538481   -1.483531
     21          1           0       -1.088774   -0.375168   -2.178049
     22          6           0       -0.426012    0.419209    1.023129
     23          6           0        0.838015    0.971187    0.855828
     24          1           0       -0.847294    0.343818    2.008996
     25          6           0        1.409412    1.031076   -0.400065
     26          1           0        1.377592    1.320076    1.724420
     27          1           0        1.149208    0.582081   -2.461081
     28          1           0        2.396593    1.450475   -0.532131
     29          8           0       -9.865713    2.844742   -0.524493
     30          8           0      -10.555199    2.100126    0.339676
     31          1           0      -10.375646    2.539141    1.175608
 ---------------------------------------------------------------------
                    Distance matrix (angstroms):
                    1          2          3          4          5
     1  C    0.000000
     2  C    1.376655   0.000000
     3  C    2.405011   1.391286   0.000000
     4  H    2.133286   1.083241   2.142915   0.000000
     5  C    2.735953   2.374182   1.384928   3.360239   0.000000
     6  H    3.388437   2.155412   1.086240   2.474180   2.166298
     7  C    2.407006   2.780100   2.427107   3.863257   1.376518
     8  H    3.821149   3.354248   2.125097   4.252323   1.085289
     9  C    1.389758   2.399280   2.788147   3.379770   2.372137
    10  H    1.077104   2.128267   3.378273   2.450467   3.813042
    11  H    2.131729   3.366838   3.865119   4.256293   3.359366
    12  C    3.816523   4.282384   3.773589   5.365119   2.468752
    13  C    4.341177   5.174382   4.988468   6.229786   3.818202
    14  H    4.407721   4.747232   4.078695   5.812005   2.752053
    15  H    4.432515   4.712147   4.027141   5.766115   2.704547
    16  C    5.831415   6.597044   6.258592   7.666166   4.976641
    17  H    4.176913   5.103652   5.095375   6.106398   4.070733
    18  H    4.199450   5.180951   5.172773   6.196280   4.131034
    19  C    6.584254   7.286041   6.901726   8.336726   5.628463
    20  C    7.955016   8.630627   8.172656   9.687891   6.860701
    21  H    6.267770   6.932156   6.596809   7.941526   5.413019
    22  C    6.702285   7.463205   7.080025   8.532723   5.780667
    23  C    8.057755   8.783761   8.324704   9.860338   6.986326
    24  H    6.481179   7.260564   6.931130   8.304558   5.698421
    25  C    8.614811   9.309305   8.817219  10.386288   7.465379
    26  H    8.789849   9.514139   9.045470  10.582504   7.719604
    27  H    8.634019   9.269539   8.798216  10.303989   7.517414
    28  H    9.693110  10.370892   9.843008  11.448752   8.481111
    29  O    5.786444   4.475469   3.553809   4.389771   4.385294
    30  O    5.591553   4.279190   3.701627   3.959965   4.762122
    31  H    5.871338   4.652545   4.017591   4.442217   4.926506
                    6          7          8          9         10
     6  H    0.000000
     7  C    3.414036   0.000000
     8  H    2.473897   2.123624   0.000000
     9  C    3.874236   1.388457   3.354899   0.000000
    10  H    4.273204   3.381747   4.898249   2.140950   0.000000
    11  H    4.950967   2.151072   4.258464   1.077614   2.448933
    12  C    4.634604   1.505130   2.628767   2.555458   4.691419
    13  C    5.951359   2.564306   4.132069   2.955142   4.963522
    14  H    4.823404   2.120913   2.660121   3.226467   5.309559
    15  H    4.753067   2.132244   2.563548   3.291506   5.349957
    16  C    7.140486   3.882100   5.030144   4.446429   6.461805
    17  H    6.091936   2.794281   4.514761   2.883292   4.681249
    18  H    6.181086   2.817358   4.588582   2.855659   4.686079
    19  C    7.730470   4.642331   5.587076   5.252376   7.216445
    20  C    8.950576   5.946845   6.694294   6.612688   8.590495
    21  H    7.413973   4.477582   5.428799   5.029005   6.881606
    22  C    7.926933   4.750103   5.752944   5.323090   7.317629
    23  C    9.120611   6.033541   6.831428   6.673743   8.681769
    24  H    7.783880   4.674863   5.741161   5.152452   7.060012
    25  C    9.588546   6.549234   7.253932   7.233847   9.252478
    26  H    9.820132   6.800381   7.541322   7.423260   9.397124
    27  H    9.537944   6.668503   7.314826   7.337212   9.262336
    28  H   10.583737   7.606417   8.210880   8.313218  10.331829
    29  O    2.484833   5.733424   4.205798   6.320598   6.572092
    30  O    2.747724   5.999633   4.837360   6.335511   6.223750
    31  H    3.162578   6.128856   4.937883   6.515947   6.524254
                   11         12         13         14         15
    11  H    0.000000
    12  C    2.803216   0.000000
    13  C    2.609473   1.521072   0.000000
    14  H    3.503921   1.092133   2.143987   0.000000
    15  H    3.626050   1.092965   2.133824   1.736713   0.000000
    16  C    4.083335   2.510702   1.500422   2.748137   2.694603
    17  H    2.417470   2.141264   1.084710   3.039289   2.492942
    18  H    2.279886   2.146184   1.088887   2.488643   3.036931
    19  C    4.935436   3.304465   2.485047   3.719421   3.037659
    20  C    6.277776   4.537109   3.769630   4.758860   4.199802
    21  H    4.774675   3.347498   2.677987   4.016788   2.898620
    22  C    4.927021   3.378107   2.531722   3.178629   3.704667
    23  C    6.277694   4.592121   3.805611   4.347228   4.704985
    24  H    4.744635   3.477249   2.741725   3.081755   4.061334
    25  C    6.860359   5.074250   4.294990   5.024530   4.915350
    26  H    7.013367   5.398958   4.664688   4.998124   5.598384
    27  H    7.029378   5.317533   4.621490   5.626360   4.825001
    28  H    7.936898   6.121541   5.375576   6.025216   5.908315
    29  O    7.391534   6.745445   8.180998   6.695205   6.727918
    30  O    7.373793   7.173883   8.519409   7.126568   7.337959
    31  H    7.523386   7.222486   8.572588   7.035425   7.459546
                   16         17         18         19         20
    16  C    0.000000
    17  H    2.112492   0.000000
    18  H    2.136750   1.743170   0.000000
    19  C    1.384430   2.597250   3.333950   0.000000
    20  C    2.408721   3.954100   4.501679   1.383675   0.000000
    21  H    2.142548   2.397166   3.648865   1.083111   2.131064
    22  C    1.383183   3.339760   2.692429   2.376752   2.753358
    23  C    2.412257   4.484368   4.055292   2.754953   2.382653
    24  H    2.127694   3.678040   2.506576   3.352151   3.827670
    25  C    2.795143   4.734096   4.798296   2.399963   1.382071
    26  H    3.381017   5.417166   4.742094   3.834922   3.369231
    27  H    3.380315   4.635082   5.426270   2.136834   1.073858
    28  H    3.875804   5.790549   5.860214   3.381180   2.142911
    29  O    9.214632   8.431129   8.434414   9.765409  10.863611
    30  O    9.673446   8.759034   8.616839  10.349137  11.515074
    31  H    9.679221   8.922016   8.602289  10.442400  11.571333
                   21         22         23         24         25
    21  H    0.000000
    22  C    3.364198   0.000000
    23  C    3.837916   1.389400   0.000000
    24  H    4.255185   1.074755   2.136272   0.000000
    25  C    3.373379   2.401800   1.381068   3.371739   0.000000
    26  H    4.917935   2.134563   1.080426   2.446259   2.144288
    27  H    2.450510   3.827214   3.354122   4.901467   2.125345
    28  H    4.264950   3.383702   2.141334   4.266711   1.080677
    29  O    9.494036   9.868450  10.953779   9.695620  11.420741
    30  O   10.103426  10.290433  11.460639  10.005731  12.035032
    31  H   10.294960  10.174113  11.327265   9.813432  11.985183
                   26         27         28         29         30
    26  H    0.000000
    27  H    4.256198   0.000000
    28  H    2.479394   2.455794   0.000000
    29  O   11.566941  11.410456  12.341320   0.000000
    30  O   12.038168  12.130204  12.997345   1.332903   0.000000
    31  H   11.829028  12.242461  12.931807   1.801046   0.961122
                   31
    31  H    0.000000
 Stoichiometry    C14H15O2(2)
 Framework group  C1[X(C14H15O2)]
 Deg. of freedom    87
 Full point group                 C1      NOp   1
 Largest Abelian subgroup         C1      NOp   1
 Largest concise Abelian subgroup C1      NOp   1
                         Standard orientation:                         
 ---------------------------------------------------------------------
 Center     Atomic      Atomic             Coordinates (Angstroms)
 Number     Number       Type             X           Y           Z
 ---------------------------------------------------------------------
      1          6           0        2.371029    2.387894    0.070947
      2          6           0        3.420578    1.539153   -0.199728
      3          6           0        3.215766    0.166529   -0.297878
      4          1           0        4.424538    1.935959   -0.289283
      5          6           0        1.913179   -0.295086   -0.207310
      6          1           0        4.054440   -0.504394   -0.460372
      7          6           0        0.834790    0.536502   -0.006466
      8          1           0        1.736036   -1.358311   -0.333901
      9          6           0        1.076716    1.891991    0.172240
     10          1           0        2.552152    3.443292    0.187063
     11          1           0        0.271408    2.574510    0.388799
     12          6           0       -0.536134   -0.084258    0.018872
     13          6           0       -1.701786    0.886447    0.131323
     14          1           0       -0.579027   -0.793437    0.848319
     15          1           0       -0.676354   -0.686491   -0.882364
     16          6           0       -3.030657    0.190903    0.091455
     17          1           0       -1.659358    1.596190   -0.687860
     18          1           0       -1.606950    1.464049    1.049504
     19          6           0       -3.632066   -0.032906   -1.135274
     20          6           0       -4.862407   -0.660192   -1.220896
     21          1           0       -3.144043    0.292924   -2.045657
     22          6           0       -3.685142   -0.238003    1.232018
     23          6           0       -4.914844   -0.879648    1.151049
     24          1           0       -3.248158   -0.045142    2.194799
     25          6           0       -5.508463   -1.091537   -0.077799
     26          1           0       -5.412115   -1.178274    2.062567
     27          1           0       -5.322242   -0.821975   -2.177739
     28          1           0       -6.469611   -1.581169   -0.143509
     29          8           0        5.853802   -2.214235   -0.345757
     30          8           0        6.513172   -1.351269    0.426999
     31          1           0        6.380132   -1.720436    1.304366
 ---------------------------------------------------------------------
 Rotational constants (GHZ):           1.1799152           0.1510993           0.1413415
 Standard basis: 6-311+G(2df,2p) (5D, 7F)
 There are   759 symmetry adapted cartesian basis functions of A   symmetry.
 There are   679 symmetry adapted basis functions of A   symmetry.
   679 basis functions,   997 primitive gaussians,   759 cartesian basis functions
    58 alpha electrons       57 beta electrons
       nuclear repulsion energy       930.6915619322 Hartrees.
 NAtoms=   31 NActive=   31 NUniq=   31 SFac= 1.00D+00 NAtFMM=   60 NAOKFM=F Big=F
 Integral buffers will be    131072 words long.
 Raffenetti 2 integral format.
 Two-electron integral symmetry is turned on.
 One-electron integrals computed using PRISM.
 NBasis=   679 RedAO= T EigKep=  1.28D-06  NBF=   679
 NBsUse=   677 1.00D-06 EigRej=  9.17D-07 NBFU=   677
 Initial guess from the checkpoint file:  "/scratch/dinius.ab/QMscratch/Gau-33049.chk"
 B after Tr=    -0.000000   -0.000000   -0.000000
         Rot=    0.998771    0.049281    0.003799    0.003545 Ang=   5.68 deg.
 Initial guess <Sx>= 0.0000 <Sy>= 0.0000 <Sz>= 0.5000 <S**2>= 0.7555 S= 0.5027
 ExpMin= 4.38D-02 ExpMax= 8.59D+03 ExpMxC= 1.30D+03 IAcc=2 IRadAn=         4 AccDes= 0.00D+00
 Harris functional with IExCor= 1009 and IRadAn=       4 diagonalized for initial guess.
 HarFok:  IExCor= 1009 AccDes= 0.00D+00 IRadAn=         4 IDoV= 1 UseB2=F ITyADJ=14
 ICtDFT=  3500011 ScaDFX=  1.000000  1.000000  1.000000  1.000000
 FoFCou: FMM=F IPFlag=           0 FMFlag=      100000 FMFlg1=           0
         NFxFlg=           0 DoJE=T BraDBF=F KetDBF=T FulRan=T
         wScrn=  0.000000 ICntrl=       500 IOpCl=  0 I1Cent=   200000004 NGrid=           0
         NMat0=    1 NMatS0=      1 NMatT0=    0 NMatD0=    1 NMtDS0=    0 NMtDT0=    0
 Petite list used in FoFCou.
 Requested convergence on RMS density matrix=1.00D-08 within 128 cycles.
 Requested convergence on MAX density matrix=1.00D-06.
 Requested convergence on             energy=1.00D-06.
 No special actions if energy rises.
