 Entering Gaussian System, Link 0=g16
 Input=rxn906.com
 Output=rxn906.log
 Initial command:
 /shared/centos7/gaussian/g16/l1.exe "/scratch/dinius.ab/QMscratch/Gau-6021.inp" -scrdir="/scratch/dinius.ab/QMscratch/"
 Entering Link 1 = /shared/centos7/gaussian/g16/l1.exe PID=      6023.
  
 Copyright (c) 1988,1990,1992,1993,1995,1998,2003,2009,2016,
            Gaussian, Inc.  All Rights Reserved.
  
 This is part of the Gaussian(R) 16 program.  It is based on
 the Gaussian(R) 09 system (copyright 2009, Gaussian, Inc.),
 the Gaussian(R) 03 system (copyright 2003, Gaussian, Inc.),
 the Gaussian(R) 98 system (copyright 1998, Gaussian, Inc.),
 the Gaussian(R) 94 system (copyright 1995, Gaussian, Inc.),
 the Gaussian 92(TM) system (copyright 1992, Gaussian, Inc.),
 the Gaussian 90(TM) system (copyright 1990, Gaussian, Inc.),
 the Gaussian 88(TM) system (copyright 1988, Gaussian, Inc.),
 the Gaussian 86(TM) system (copyright 1986, Carnegie Mellon
 University), and the Gaussian 82(TM) system (copyright 1983,
 Carnegie Mellon University). Gaussian is a federally registered
 trademark of Gaussian, Inc.
  
 This software contains proprietary and confidential information,
 including trade secrets, belonging to Gaussian, Inc.
  
 This software is provided under written license and may be
 used, copied, transmitted, or stored only in accord with that
 written license.
  
 The following legend is applicable only to US Government
 contracts under FAR:
  
                    RESTRICTED RIGHTS LEGEND
  
 Use, reproduction and disclosure by the US Government is
 subject to restrictions as set forth in subparagraphs (a)
 and (c) of the Commercial Computer Software - Restricted
 Rights clause in FAR 52.227-19.
  
 Gaussian, Inc.
 340 Quinnipiac St., Bldg. 40, Wallingford CT 06492
  
  
 ---------------------------------------------------------------
 Warning -- This program may not be used in any manner that
 competes with the business of Gaussian, Inc. or will provide
 assistance to any competitor of Gaussian, Inc.  The licensee
 of this program is prohibited from giving any competitor of
 Gaussian, Inc. access to this program.  By using this program,
 the user acknowledges that Gaussian, Inc. is engaged in the
 business of creating and licensing software in the field of
 computational chemistry and represents and warrants to the
 licensee that it is not a competitor of Gaussian, Inc. and that
 it will not use this program in any manner prohibited above.
 ---------------------------------------------------------------
  

 Cite this work as:
 Gaussian 16, Revision A.03,
 M. J. Frisch, G. W. Trucks, H. B. Schlegel, G. E. Scuseria, 
 M. A. Robb, J. R. Cheeseman, G. Scalmani, V. Barone, 
 G. A. Petersson, H. Nakatsuji, X. Li, M. Caricato, A. V. Marenich, 
 J. Bloino, B. G. Janesko, R. Gomperts, B. Mennucci, H. P. Hratchian, 
 J. V. Ortiz, A. F. Izmaylov, J. L. Sonnenberg, D. Williams-Young, 
 F. Ding, F. Lipparini, F. Egidi, J. Goings, B. Peng, A. Petrone, 
 T. Henderson, D. Ranasinghe, V. G. Zakrzewski, J. Gao, N. Rega, 
 G. Zheng, W. Liang, M. Hada, M. Ehara, K. Toyota, R. Fukuda, 
 J. Hasegawa, M. Ishida, T. Nakajima, Y. Honda, O. Kitao, H. Nakai, 
 T. Vreven, K. Throssell, J. A. Montgomery, Jr., J. E. Peralta, 
 F. Ogliaro, M. J. Bearpark, J. J. Heyd, E. N. Brothers, K. N. Kudin, 
 V. N. Staroverov, T. A. Keith, R. Kobayashi, J. Normand, 
 K. Raghavachari, A. P. Rendell, J. C. Burant, S. S. Iyengar, 
 J. Tomasi, M. Cossi, J. M. Millam, M. Klene, C. Adamo, R. Cammi, 
 J. W. Ochterski, R. L. Martin, K. Morokuma, O. Farkas, 
 J. B. Foresman, and D. J. Fox, Gaussian, Inc., Wallingford CT, 2016.
 
 ******************************************
 Gaussian 16:  EM64L-G16RevA.03 25-Dec-2016
                11-Jan-2019 
 ******************************************
 ----------------------------------------------------------------------
 #m062x/6-311+g(2df,2p) Opt=(ModRedun,Loose,maxcycle=1000) Int(Grid=SG1
 ) freq
 ----------------------------------------------------------------------
 1/6=1000,7=-1,18=120,19=15,26=2,38=1/1,3;
 2/9=110,12=2,17=6,18=5,40=1/2;
 3/5=4,6=6,7=214,11=2,25=1,30=1,71=1,74=-55,75=1/1,2,3;
 4//1;
 5/5=2,38=5/2;
 6/7=2,8=2,9=2,10=2,28=1/1;
 7//1,2,3,16;
 1/6=1000,7=-1,18=20,19=15,26=2/3(2);
 2/9=110/2;
 99//99;
 2/9=110/2;
 3/5=4,6=6,7=214,11=2,25=1,30=1,71=1,74=-55,75=1/1,2,3;
 4/5=5,16=3,69=1/1;
 5/5=2,38=5/2;
 7//1,2,3,16;
 1/6=1000,7=-1,18=20,19=15,26=2/3(-5);
 2/9=110/2;
 6/7=2,8=2,9=2,10=2,19=2,28=1/1;
 99/9=1/99;
 -----
 Title
 -----
 Symbolic Z-matrix:
 Charge =  0 Multiplicity = 2
 C                    -24.18434   18.53549   1.90363 
 C                    -23.87067   17.69896   0.83744 
 C                    -23.59754   18.3416   3.16484 
 H                    -24.89431   19.34377   1.73975 
 C                    -22.96261   16.65901   1.0142 
 H                    -24.33356   17.85776  -0.13296 
 C                    -22.35047   16.44267   2.25682 
 H                    -22.73203   16.01656   0.16722 
 C                    -22.6593   17.28829   3.35271 
 C                    -22.00799   17.03253   4.58104 
 C                    -21.09524   15.98447   4.72405 
 H                    -22.20272   17.65389   5.45145 
 C                    -21.43141   15.39209   2.41667 
 C                    -20.80801   15.16353   3.64202 
 H                    -21.19197   14.73981   1.57949 
 H                    -20.61078   15.81365   5.68174 
 H                    -20.09897   14.34709   3.74827 
 C                    -23.97152   19.27611   4.29288 
 H                    -24.77604   19.99643   4.03597 
 H                    -23.08952   19.85658   4.58974 
 H                    -24.31955   18.6921   5.15435 
 O                    -25.58176   20.55819   4.02934 
 O                    -25.29818   21.91578   4.46877 
 H                    -25.82962   21.87961   5.28443 
 
 The following ModRedundant input section has been read:
 B      19      22 F                                                           
 B      18      19 F                                                           
 

 GradGradGradGradGradGradGradGradGradGradGradGradGradGradGradGradGradGrad
 Berny optimization.
 Initialization pass.
                           ----------------------------
                           !    Initial Parameters    !
                           ! (Angstroms and Degrees)  !
 --------------------------                            --------------------------
 ! Name  Definition              Value          Derivative Info.                !
 --------------------------------------------------------------------------------
 ! R1    R(1,2)                  1.391          estimate D2E/DX2                !
 ! R2    R(1,3)                  1.4045         estimate D2E/DX2                !
 ! R3    R(1,4)                  1.0882         estimate D2E/DX2                !
 ! R4    R(2,5)                  1.3919         estimate D2E/DX2                !
 ! R5    R(2,6)                  1.0868         estimate D2E/DX2                !
 ! R6    R(3,9)                  1.423          estimate D2E/DX2                !
 ! R7    R(3,18)                 1.5118         estimate D2E/DX2                !
 ! R8    R(5,7)                  1.402          estimate D2E/DX2                !
 ! R9    R(5,8)                  1.0878         estimate D2E/DX2                !
 ! R10   R(7,9)                  1.4182         estimate D2E/DX2                !
 ! R11   R(7,13)                 1.405          estimate D2E/DX2                !
 ! R12   R(9,10)                 1.4137         estimate D2E/DX2                !
 ! R13   R(10,11)                1.3971         estimate D2E/DX2                !
 ! R14   R(10,12)                1.087          estimate D2E/DX2                !
 ! R15   R(11,14)                1.3882         estimate D2E/DX2                !
 ! R16   R(11,16)                1.0868         estimate D2E/DX2                !
 ! R17   R(13,14)                1.3937         estimate D2E/DX2                !
 ! R18   R(13,15)                1.088          estimate D2E/DX2                !
 ! R19   R(14,17)                1.0866         estimate D2E/DX2                !
 ! R20   R(18,19)                1.11           Frozen                          !
 ! R21   R(18,20)                1.0968         estimate D2E/DX2                !
 ! R22   R(18,21)                1.0974         estimate D2E/DX2                !
 ! R23   R(19,22)                0.9822         Frozen                          !
 ! R24   R(22,23)                1.4548         estimate D2E/DX2                !
 ! R25   R(23,24)                0.9742         estimate D2E/DX2                !
 ! A1    A(2,1,3)              120.7342         estimate D2E/DX2                !
 ! A2    A(2,1,4)              118.5787         estimate D2E/DX2                !
 ! A3    A(3,1,4)              120.6871         estimate D2E/DX2                !
 ! A4    A(1,2,5)              119.9405         estimate D2E/DX2                !
 ! A5    A(1,2,6)              120.031          estimate D2E/DX2                !
 ! A6    A(5,2,6)              120.0285         estimate D2E/DX2                !
 ! A7    A(1,3,9)              119.749          estimate D2E/DX2                !
 ! A8    A(1,3,18)             118.7729         estimate D2E/DX2                !
 ! A9    A(9,3,18)             121.4744         estimate D2E/DX2                !
 ! A10   A(2,5,7)              120.8437         estimate D2E/DX2                !
 ! A11   A(2,5,8)              118.73           estimate D2E/DX2                !
 ! A12   A(7,5,8)              120.4259         estimate D2E/DX2                !
 ! A13   A(5,7,9)              119.8534         estimate D2E/DX2                !
 ! A14   A(5,7,13)             120.1217         estimate D2E/DX2                !
 ! A15   A(9,7,13)             120.0249         estimate D2E/DX2                !
 ! A16   A(3,9,7)              118.874          estimate D2E/DX2                !
 ! A17   A(3,9,10)             123.5315         estimate D2E/DX2                !
 ! A18   A(7,9,10)             117.5945         estimate D2E/DX2                !
 ! A19   A(9,10,11)            121.7122         estimate D2E/DX2                !
 ! A20   A(9,10,12)            120.6508         estimate D2E/DX2                !
 ! A21   A(11,10,12)           117.6369         estimate D2E/DX2                !
 ! A22   A(10,11,14)           119.933          estimate D2E/DX2                !
 ! A23   A(10,11,16)           119.9565         estimate D2E/DX2                !
 ! A24   A(14,11,16)           120.1105         estimate D2E/DX2                !
 ! A25   A(7,13,14)            121.0153         estimate D2E/DX2                !
 ! A26   A(7,13,15)            120.3134         estimate D2E/DX2                !
 ! A27   A(14,13,15)           118.6713         estimate D2E/DX2                !
 ! A28   A(11,14,13)           119.7195         estimate D2E/DX2                !
 ! A29   A(11,14,17)           120.208          estimate D2E/DX2                !
 ! A30   A(13,14,17)           120.0725         estimate D2E/DX2                !
 ! A31   A(3,18,19)            114.0617         estimate D2E/DX2                !
 ! A32   A(3,18,20)            109.2786         estimate D2E/DX2                !
 ! A33   A(3,18,21)            109.5858         estimate D2E/DX2                !
 ! A34   A(19,18,20)           107.5804         estimate D2E/DX2                !
 ! A35   A(19,18,21)           107.2878         estimate D2E/DX2                !
 ! A36   A(20,18,21)           108.9171         estimate D2E/DX2                !
 ! A37   A(19,22,23)           111.8238         estimate D2E/DX2                !
 ! A38   A(22,23,24)            96.4257         estimate D2E/DX2                !
 ! A39   L(18,19,22,4,-1)      190.9104         estimate D2E/DX2                !
 ! A40   L(18,19,22,4,-2)      170.1196         estimate D2E/DX2                !
 ! D1    D(3,1,2,5)             -0.2177         estimate D2E/DX2                !
 ! D2    D(3,1,2,6)            179.8348         estimate D2E/DX2                !
 ! D3    D(4,1,2,5)            179.7782         estimate D2E/DX2                !
 ! D4    D(4,1,2,6)             -0.1693         estimate D2E/DX2                !
 ! D5    D(2,1,3,9)              0.7555         estimate D2E/DX2                !
 ! D6    D(2,1,3,18)          -179.9322         estimate D2E/DX2                !
 ! D7    D(4,1,3,9)           -179.2403         estimate D2E/DX2                !
 ! D8    D(4,1,3,18)             0.072          estimate D2E/DX2                !
 ! D9    D(1,2,5,7)             -0.2617         estimate D2E/DX2                !
 ! D10   D(1,2,5,8)            179.9727         estimate D2E/DX2                !
 ! D11   D(6,2,5,7)            179.6858         estimate D2E/DX2                !
 ! D12   D(6,2,5,8)             -0.0799         estimate D2E/DX2                !
 ! D13   D(1,3,9,7)             -0.8085         estimate D2E/DX2                !
 ! D14   D(1,3,9,10)           179.123          estimate D2E/DX2                !
 ! D15   D(18,3,9,7)           179.8982         estimate D2E/DX2                !
 ! D16   D(18,3,9,10)           -0.1703         estimate D2E/DX2                !
 ! D17   D(1,3,18,19)            5.6393         estimate D2E/DX2                !
 ! D18   D(1,3,18,20)         -114.7997         estimate D2E/DX2                !
 ! D19   D(1,3,18,21)          125.9251         estimate D2E/DX2                !
 ! D20   D(9,3,18,19)         -175.0607         estimate D2E/DX2                !
 ! D21   D(9,3,18,20)           64.5003         estimate D2E/DX2                !
 ! D22   D(9,3,18,21)          -54.7749         estimate D2E/DX2                !
 ! D23   D(2,5,7,9)              0.1933         estimate D2E/DX2                !
 ! D24   D(2,5,7,13)          -179.7075         estimate D2E/DX2                !
 ! D25   D(8,5,7,9)            179.955          estimate D2E/DX2                !
 ! D26   D(8,5,7,13)             0.0541         estimate D2E/DX2                !
 ! D27   D(5,7,9,3)              0.3417         estimate D2E/DX2                !
 ! D28   D(5,7,9,10)          -179.5938         estimate D2E/DX2                !
 ! D29   D(13,7,9,3)          -179.7573         estimate D2E/DX2                !
 ! D30   D(13,7,9,10)            0.3071         estimate D2E/DX2                !
 ! D31   D(5,7,13,14)          179.7403         estimate D2E/DX2                !
 ! D32   D(5,7,13,15)           -0.1743         estimate D2E/DX2                !
 ! D33   D(9,7,13,14)           -0.1603         estimate D2E/DX2                !
 ! D34   D(9,7,13,15)          179.925          estimate D2E/DX2                !
 ! D35   D(3,9,10,11)          179.8179         estimate D2E/DX2                !
 ! D36   D(3,9,10,12)           -0.3368         estimate D2E/DX2                !
 ! D37   D(7,9,10,11)           -0.2498         estimate D2E/DX2                !
 ! D38   D(7,9,10,12)          179.5955         estimate D2E/DX2                !
 ! D39   D(9,10,11,14)           0.0379         estimate D2E/DX2                !
 ! D40   D(9,10,11,16)         179.9932         estimate D2E/DX2                !
 ! D41   D(12,10,11,14)       -179.8119         estimate D2E/DX2                !
 ! D42   D(12,10,11,16)          0.1434         estimate D2E/DX2                !
 ! D43   D(10,11,14,13)          0.1203         estimate D2E/DX2                !
 ! D44   D(10,11,14,17)       -179.9933         estimate D2E/DX2                !
 ! D45   D(16,11,14,13)       -179.8348         estimate D2E/DX2                !
 ! D46   D(16,11,14,17)          0.0515         estimate D2E/DX2                !
 ! D47   D(7,13,14,11)          -0.059          estimate D2E/DX2                !
 ! D48   D(7,13,14,17)        -179.9454         estimate D2E/DX2                !
 ! D49   D(15,13,14,11)        179.857          estimate D2E/DX2                !
 ! D50   D(15,13,14,17)         -0.0294         estimate D2E/DX2                !
 ! D51   D(3,18,22,23)        -134.6267         estimate D2E/DX2                !
 ! D52   D(20,18,22,23)         -8.4424         estimate D2E/DX2                !
 ! D53   D(21,18,22,23)        106.0543         estimate D2E/DX2                !
 ! D54   D(19,22,23,24)       -114.2572         estimate D2E/DX2                !
 --------------------------------------------------------------------------------
 Trust Radius=3.00D-01 FncErr=1.00D-05 GrdErr=1.00D-04 EigMax=2.50D+02 EigMin=1.00D-04
 Number of steps in this run=    144 maximum allowed number of steps=    144.
 GradGradGradGradGradGradGradGradGradGradGradGradGradGradGradGradGradGrad

                          Input orientation:                          
 ---------------------------------------------------------------------
 Center     Atomic      Atomic             Coordinates (Angstroms)
 Number     Number       Type             X           Y           Z
 ---------------------------------------------------------------------
      1          6           0      -24.184340   18.535490    1.903630
      2          6           0      -23.870670   17.698960    0.837440
      3          6           0      -23.597540   18.341600    3.164840
      4          1           0      -24.894310   19.343770    1.739750
      5          6           0      -22.962610   16.659010    1.014200
      6          1           0      -24.333560   17.857760   -0.132960
      7          6           0      -22.350470   16.442670    2.256820
      8          1           0      -22.732030   16.016560    0.167220
      9          6           0      -22.659300   17.288290    3.352710
     10          6           0      -22.007990   17.032530    4.581040
     11          6           0      -21.095240   15.984470    4.724050
     12          1           0      -22.202720   17.653890    5.451450
     13          6           0      -21.431410   15.392090    2.416670
     14          6           0      -20.808010   15.163530    3.642020
     15          1           0      -21.191970   14.739810    1.579490
     16          1           0      -20.610780   15.813650    5.681740
     17          1           0      -20.098970   14.347090    3.748270
     18          6           0      -23.971520   19.276110    4.292880
     19          1           0      -24.776040   19.996430    4.035970
     20          1           0      -23.089520   19.856580    4.589740
     21          1           0      -24.319550   18.692100    5.154350
     22          8           0      -25.581760   20.558190    4.029340
     23          8           0      -25.298180   21.915780    4.468770
     24          1           0      -25.829620   21.879610    5.284430
 ---------------------------------------------------------------------
                    Distance matrix (angstroms):
                    1          2          3          4          5
     1  C    0.000000
     2  C    1.391018   0.000000
     3  C    1.404485   2.429892   0.000000
     4  H    1.088224   2.137148   2.171828   0.000000
     5  C    2.409333   1.391874   2.803480   3.386122   0.000000
     6  H    2.151577   1.086812   3.413402   2.455547   2.152320
     7  C    2.804945   2.429797   2.446552   3.892925   1.402007
     8  H    3.386640   2.139197   3.891098   4.268329   1.087789
     9  C    2.445626   2.821817   1.423043   3.438300   2.440619
    10  C    3.763497   4.234176   2.499191   4.663218   3.711221
    11  C    4.899491   5.074271   3.774745   5.884206   4.207738
    12  H    4.158252   4.906442   2.765331   4.886417   4.610467
    13  C    4.209845   3.710203   3.735169   5.297704   2.432402
    14  C    5.078555   4.865589   4.255503   6.147429   3.712708
    15  H    4.844227   4.059882   4.612265   5.910114   2.671712
    16  H    5.869656   6.135839   4.652532   6.808059   5.294494
    17  H    6.134789   5.825263   5.341956   7.210842   4.584817
    18  C    2.510443   3.799689   1.511835   2.715620   4.314725
    19  H    2.651665   4.040873   2.210473   2.390100   4.853658
    20  H    3.187334   4.398326   2.140932   3.412138   4.798442
    21  H    3.257298   4.452363   2.145297   3.523424   4.807867
    22  O    3.250037   4.614244   3.098025   2.681348   5.581632
    23  O    4.387134   5.745077   4.167394   3.771723   6.709886
    24  H    5.031888   6.410229   4.689601   4.457583   7.328661
                    6          7          8          9         10
     6  H    0.000000
     7  C    3.412649   0.000000
     8  H    2.458663   2.166469   0.000000
     9  C    3.908624   1.418247   3.430734   0.000000
    10  C    5.320815   2.422236   4.586746   1.413652   0.000000
    11  C    6.130781   2.805846   4.841984   2.454955   1.397138
    12  H    5.980608   3.419729   5.557347   2.178724   1.087024
    13  C    4.582861   1.404970   2.672377   2.445293   2.776326
    14  C    5.825706   2.436013   4.062481   2.832945   2.411404
    15  H    4.745912   2.168094   2.448751   3.433965   3.864163
    16  H    7.200570   3.892591   5.911921   3.434440   2.156248
    17  H    6.732050   3.418352   4.748058   3.919492   3.398448
    18  C    4.661636   3.847301   5.402043   2.560717   2.995353
    19  H    4.706344   4.655961   5.914775   3.504491   4.091932
    20  H    5.277008   4.200416   5.867899   2.882958   3.024077
    21  H    5.352753   4.163279   5.877942   2.823654   2.902786
    22  O    5.116157   5.524542   6.607824   4.437437   5.050394
    23  O    6.210792   6.598231   7.738815   5.442696   5.889320
    24  H    6.910976   7.129602   8.375933   5.904464   6.212391
                   11         12         13         14         15
    11  C    0.000000
    12  H    2.131334   0.000000
    13  C    2.405811   3.862713   0.000000
    14  C    1.388248   3.379519   1.393682   0.000000
    15  H    3.383311   4.950308   1.087966   2.140326   0.000000
    16  H    1.086762   2.444134   3.392909   2.149887   4.280113
    17  H    2.150747   4.273349   2.154201   1.086555   2.460180
    18  C    4.392469   2.665058   5.005790   5.229219   5.972135
    19  H    5.487947   3.756734   5.916809   6.265571   6.819964
    20  H    4.357571   2.526025   5.234810   5.303601   6.232466
    21  H    4.232327   2.376366   5.169750   5.202774   6.179157
    22  O    6.444408   4.677100   6.820169   7.213949   7.689315
    23  O    7.273947   5.358287   7.856307   8.150952   8.758050
    24  H    7.581626   5.571266   8.346030   8.545163   9.284994
                   16         17         18         19         20
    16  H    0.000000
    17  H    2.480132   0.000000
    18  C    5.021169   6.291938   0.000000
    19  H    6.128099   7.339809   1.110007   0.000000
    20  H    4.866405   6.325025   1.096811   1.780609   0.000000
    21  H    4.724255   6.218478   1.097417   1.777761   1.785433
    22  O    7.067654   8.289617   2.075104   0.982244   2.649069
    23  O    7.789673   9.210645   2.959531   2.035645   3.022105
    24  H    8.011867   9.588482   3.348719   2.493000   3.476117
                   21         22         23         24
    21  H    0.000000
    22  O    2.518157   0.000000
    23  O    3.438001   1.454843   0.000000
    24  H    3.529512   1.839249   0.974186   0.000000
 Stoichiometry    C11H11O2(2)
 Framework group  C1[X(C11H11O2)]
 Deg. of freedom    66
 Full point group                 C1      NOp   1
 Largest Abelian subgroup         C1      NOp   1
 Largest concise Abelian subgroup C1      NOp   1
                         Standard orientation:                         
 ---------------------------------------------------------------------
 Center     Atomic      Atomic             Coordinates (Angstroms)
 Number     Number       Type             X           Y           Z
 ---------------------------------------------------------------------
      1          6           0        0.900266    1.533543    0.006619
      2          6           0       -0.122112    2.476222   -0.025513
      3          6           0        0.609334    0.159781    0.033390
      4          1           0        1.930788    1.883172    0.010508
      5          6           0       -1.450375    2.060384   -0.035960
      6          1           0        0.116016    3.536476   -0.043308
      7          6           0       -1.776906    0.697026   -0.019969
      8          1           0       -2.234131    2.814305   -0.060734
      9          6           0       -0.745265   -0.275681    0.011365
     10          6           0       -1.128271   -1.636446    0.017543
     11          6           0       -2.471172   -2.021505   -0.000980
     12          1           0       -0.378327   -2.423158    0.034540
     13          6           0       -3.122755    0.294109   -0.037030
     14          6           0       -3.468352   -1.056006   -0.026996
     15          1           0       -3.917916    1.036315   -0.059845
     16          1           0       -2.733427   -3.076135    0.004264
     17          1           0       -4.514152   -1.350450   -0.041365
     18          6           0        1.754921   -0.826107    0.069423
     19          1           0        2.754694   -0.354681    0.171043
     20          1           0        1.757667   -1.412113   -0.857715
     21          1           0        1.627497   -1.507194    0.920427
     22          8           0        3.668616   -0.113489    0.438207
     23          8           0        4.661884   -0.674389   -0.464774
     24          1           0        5.071403   -1.275420    0.183373
 ---------------------------------------------------------------------
 Rotational constants (GHZ):           1.5410667           0.4456193           0.3496458
 Standard basis: 6-311+G(2df,2p) (5D, 7F)
 There are   606 symmetry adapted cartesian basis functions of A   symmetry.
 There are   541 symmetry adapted basis functions of A   symmetry.
   541 basis functions,   797 primitive gaussians,   606 cartesian basis functions
    47 alpha electrons       46 beta electrons
       nuclear repulsion energy       723.9876745874 Hartrees.
 NAtoms=   24 NActive=   24 NUniq=   24 SFac= 1.00D+00 NAtFMM=   60 NAOKFM=F Big=F
 Integral buffers will be    131072 words long.
 Raffenetti 2 integral format.
 Two-electron integral symmetry is turned on.
 One-electron integrals computed using PRISM.
 NBasis=   541 RedAO= T EigKep=  1.15D-06  NBF=   541
 NBsUse=   538 1.00D-06 EigRej=  7.31D-07 NBFU=   538
 ExpMin= 4.38D-02 ExpMax= 8.59D+03 ExpMxC= 1.30D+03 IAcc=2 IRadAn=         4 AccDes= 0.00D+00
 Harris functional with IExCor= 1009 and IRadAn=       4 diagonalized for initial guess.
 HarFok:  IExCor= 1009 AccDes= 0.00D+00 IRadAn=         4 IDoV= 1 UseB2=F ITyADJ=14
 ICtDFT=  3500011 ScaDFX=  1.000000  1.000000  1.000000  1.000000
 FoFCou: FMM=F IPFlag=           0 FMFlag=      100000 FMFlg1=           0
         NFxFlg=           0 DoJE=T BraDBF=F KetDBF=T FulRan=T
         wScrn=  0.000000 ICntrl=       500 IOpCl=  0 I1Cent=   200000004 NGrid=           0
         NMat0=    1 NMatS0=      1 NMatT0=    0 NMatD0=    1 NMtDS0=    0 NMtDT0=    0
 Petite list used in FoFCou.
 Initial guess <Sx>= 0.0000 <Sy>= 0.0000 <Sz>= 0.5000 <S**2>= 0.7500 S= 0.5000
 Requested convergence on RMS density matrix=1.00D-08 within 128 cycles.
 Requested convergence on MAX density matrix=1.00D-06.
 Requested convergence on             energy=1.00D-06.
 No special actions if energy rises.
 SCF Done:  E(UM062X) =  -575.954428809     A.U. after   19 cycles
            NFock= 19  Conv=0.90D-08     -V/T= 2.0034
 <Sx>= 0.0000 <Sy>= 0.0000 <Sz>= 0.5000 <S**2>= 0.7565 S= 0.5032
 <L.S>= 0.000000000000E+00
 Annihilation of the first spin contaminant:
 S**2 before annihilation     0.7565,   after     0.7500

 **********************************************************************

            Population analysis using the SCF density.

 **********************************************************************

 Orbital symmetries:
 Alpha Orbitals:
       Occupied  (A) (A) (A) (A) (A) (A) (A) (A) (A) (A) (A) (A)
                 (A) (A) (A) (A) (A) (A) (A) (A) (A) (A) (A) (A)
                 (A) (A) (A) (A) (A) (A) (A) (A) (A) (A) (A) (A)
                 (A) (A) (A) (A) (A) (A) (A) (A) (A) (A) (A)
       Virtual   (A) (A) (A) (A) (A) (A) (A) (A) (A) (A) (A) (A)
                 (A) (A) (A) (A) (A) (A) (A) (A) (A) (A) (A) (A)
                 (A) (A) (A) (A) (A) (A) (A) (A) (A) (A) (A) (A)
                 (A) (A) (A) (A) (A) (A) (A) (A) (A) (A) (A) (A)
                 (A) (A) (A) (A) (A) (A) (A) (A) (A) (A) (A) (A)
                 (A) (A) (A) (A) (A) (A) (A) (A) (A) (A) (A) (A)
                 (A) (A) (A) (A) (A) (A) (A) (A) (A) (A) (A) (A)
                 (A) (A) (A) (A) (A) (A) (A) (A) (A) (A) (A) (A)
                 (A) (A) (A) (A) (A) (A) (A) (A) (A) (A) (A) (A)
                 (A) (A) (A) (A) (A) (A) (A) (A) (A) (A) (A) (A)
                 (A) (A) (A) (A) (A) (A) (A) (A) (A) (A) (A) (A)
                 (A) (A) (A) (A) (A) (A) (A) (A) (A) (A) (A) (A)
                 (A) (A) (A) (A) (A) (A) (A) (A) (A) (A) (A) (A)
                 (A) (A) (A) (A) (A) (A) (A) (A) (A) (A) (A) (A)
                 (A) (A) (A) (A) (A) (A) (A) (A) (A) (A) (A) (A)
                 (A) (A) (A) (A) (A) (A) (A) (A) (A) (A) (A) (A)
                 (A) (A) (A) (A) (A) (A) (A) (A) (A) (A) (A) (A)
                 (A) (A) (A) (A) (A) (A) (A) (A) (A) (A) (A) (A)
                 (A) (A) (A) (A) (A) (A) (A) (A) (A) (A) (A) (A)
                 (A) (A) (A) (A) (A) (A) (A) (A) (A) (A) (A) (A)
                 (A) (A) (A) (A) (A) (A) (A) (A) (A) (A) (A) (A)
                 (A) (A) (A) (A) (A) (A) (A) (A) (A) (A) (A) (A)
                 (A) (A) (A) (A) (A) (A) (A) (A) (A) (A) (A) (A)
                 (A) (A) (A) (A) (A) (A) (A) (A) (A) (A) (A) (A)
                 (A) (A) (A) (A) (A) (A) (A) (A) (A) (A) (A) (A)
                 (A) (A) (A) (A) (A) (A) (A) (A) (A) (A) (A) (A)
                 (A) (A) (A) (A) (A) (A) (A) (A) (A) (A) (A) (A)
                 (A) (A) (A) (A) (A) (A) (A) (A) (A) (A) (A) (A)
                 (A) (A) (A) (A) (A) (A) (A) (A) (A) (A) (A) (A)
                 (A) (A) (A) (A) (A) (A) (A) (A) (A) (A) (A) (A)
                 (A) (A) (A) (A) (A) (A) (A) (A) (A) (A) (A) (A)
                 (A) (A) (A) (A) (A) (A) (A) (A) (A) (A) (A) (A)
                 (A) (A) (A) (A) (A) (A) (A) (A) (A) (A) (A) (A)
                 (A) (A) (A) (A) (A) (A) (A) (A) (A) (A) (A) (A)
                 (A) (A) (A) (A) (A) (A) (A) (A) (A) (A) (A) (A)
                 (A) (A) (A) (A) (A) (A) (A) (A) (A) (A) (A) (A)
                 (A) (A) (A) (A) (A) (A) (A) (A) (A) (A) (A) (A)
                 (A) (A) (A) (A) (A) (A) (A) (A) (A) (A) (A) (A)
                 (A) (A) (A) (A) (A) (A) (A) (A) (A) (A) (A) (A)
                 (A) (A) (A) (A) (A) (A) (A) (A) (A) (A) (A) (A)
                 (A) (A) (A) (A) (A) (A) (A) (A) (A) (A) (A)
 Beta  Orbitals:
       Occupied  (A) (A) (A) (A) (A) (A) (A) (A) (A) (A) (A) (A)
                 (A) (A) (A) (A) (A) (A) (A) (A) (A) (A) (A) (A)
                 (A) (A) (A) (A) (A) (A) (A) (A) (A) (A) (A) (A)
                 (A) (A) (A) (A) (A) (A) (A) (A) (A) (A)
       Virtual   (A) (A) (A) (A) (A) (A) (A) (A) (A) (A) (A) (A)
                 (A) (A) (A) (A) (A) (A) (A) (A) (A) (A) (A) (A)
                 (A) (A) (A) (A) (A) (A) (A) (A) (A) (A) (A) (A)
                 (A) (A) (A) (A) (A) (A) (A) (A) (A) (A) (A) (A)
                 (A) (A) (A) (A) (A) (A) (A) (A) (A) (A) (A) (A)
                 (A) (A) (A) (A) (A) (A) (A) (A) (A) (A) (A) (A)
                 (A) (A) (A) (A) (A) (A) (A) (A) (A) (A) (A) (A)
                 (A) (A) (A) (A) (A) (A) (A) (A) (A) (A) (A) (A)
                 (A) (A) (A) (A) (A) (A) (A) (A) (A) (A) (A) (A)
                 (A) (A) (A) (A) (A) (A) (A) (A) (A) (A) (A) (A)
                 (A) (A) (A) (A) (A) (A) (A) (A) (A) (A) (A) (A)
                 (A) (A) (A) (A) (A) (A) (A) (A) (A) (A) (A) (A)
                 (A) (A) (A) (A) (A) (A) (A) (A) (A) (A) (A) (A)
                 (A) (A) (A) (A) (A) (A) (A) (A) (A) (A) (A) (A)
                 (A) (A) (A) (A) (A) (A) (A) (A) (A) (A) (A) (A)
                 (A) (A) (A) (A) (A) (A) (A) (A) (A) (A) (A) (A)
                 (A) (A) (A) (A) (A) (A) (A) (A) (A) (A) (A) (A)
                 (A) (A) (A) (A) (A) (A) (A) (A) (A) (A) (A) (A)
                 (A) (A) (A) (A) (A) (A) (A) (A) (A) (A) (A) (A)
                 (A) (A) (A) (A) (A) (A) (A) (A) (A) (A) (A) (A)
                 (A) (A) (A) (A) (A) (A) (A) (A) (A) (A) (A) (A)
                 (A) (A) (A) (A) (A) (A) (A) (A) (A) (A) (A) (A)
                 (A) (A) (A) (A) (A) (A) (A) (A) (A) (A) (A) (A)
                 (A) (A) (A) (A) (A) (A) (A) (A) (A) (A) (A) (A)
                 (A) (A) (A) (A) (A) (A) (A) (A) (A) (A) (A) (A)
                 (A) (A) (A) (A) (A) (A) (A) (A) (A) (A) (A) (A)
                 (A) (A) (A) (A) (A) (A) (A) (A) (A) (A) (A) (A)
                 (A) (A) (A) (A) (A) (A) (A) (A) (A) (A) (A) (A)
                 (A) (A) (A) (A) (A) (A) (A) (A) (A) (A) (A) (A)
                 (A) (A) (A) (A) (A) (A) (A) (A) (A) (A) (A) (A)
                 (A) (A) (A) (A) (A) (A) (A) (A) (A) (A) (A) (A)
                 (A) (A) (A) (A) (A) (A) (A) (A) (A) (A) (A) (A)
                 (A) (A) (A) (A) (A) (A) (A) (A) (A) (A) (A) (A)
                 (A) (A) (A) (A) (A) (A) (A) (A) (A) (A) (A) (A)
                 (A) (A) (A) (A) (A) (A) (A) (A) (A) (A) (A) (A)
                 (A) (A) (A) (A) (A) (A) (A) (A) (A) (A) (A) (A)
                 (A) (A) (A) (A) (A) (A) (A) (A) (A) (A) (A) (A)
                 (A) (A) (A) (A) (A) (A) (A) (A) (A) (A) (A) (A)
                 (A) (A) (A) (A) (A) (A) (A) (A) (A) (A) (A) (A)
                 (A) (A) (A) (A) (A) (A) (A) (A) (A) (A) (A) (A)
                 (A) (A) (A) (A) (A) (A) (A) (A) (A) (A) (A) (A)
 The electronic state is 2-A.
 Alpha  occ. eigenvalues --  -19.70427 -19.69519 -10.56508 -10.55870 -10.55418
 Alpha  occ. eigenvalues --  -10.55367 -10.55160 -10.55006 -10.54945 -10.54745
 Alpha  occ. eigenvalues --  -10.54616 -10.54571 -10.54490  -1.27111  -1.05702
 Alpha  occ. eigenvalues --   -0.98997  -0.93091  -0.89295  -0.84665  -0.83590
 Alpha  occ. eigenvalues --   -0.78697  -0.71784  -0.69995  -0.68026  -0.63465
 Alpha  occ. eigenvalues --   -0.60502  -0.59335  -0.58363  -0.56858  -0.53329
 Alpha  occ. eigenvalues --   -0.52006  -0.51225  -0.50817  -0.48882  -0.48176
 Alpha  occ. eigenvalues --   -0.46329  -0.46176  -0.43685  -0.43567  -0.40373
 Alpha  occ. eigenvalues --   -0.39771  -0.39429  -0.38933  -0.34373  -0.30946
 Alpha  occ. eigenvalues --   -0.30649  -0.26319
 Alpha virt. eigenvalues --   -0.02897   0.00656   0.00920   0.01482   0.02020
 Alpha virt. eigenvalues --    0.02845   0.03758   0.03926   0.04245   0.05005
 Alpha virt. eigenvalues --    0.05974   0.06406   0.06834   0.07509   0.08075
 Alpha virt. eigenvalues --    0.09020   0.09111   0.09976   0.10232   0.11100
 Alpha virt. eigenvalues --    0.11501   0.12532   0.13296   0.13863   0.13886
 Alpha virt. eigenvalues --    0.14579   0.15123   0.15884   0.16024   0.16772
 Alpha virt. eigenvalues --    0.17276   0.17650   0.18231   0.18889   0.19171
 Alpha virt. eigenvalues --    0.19508   0.19944   0.20300   0.20581   0.21140
 Alpha virt. eigenvalues --    0.22008   0.22272   0.22525   0.23073   0.23273
 Alpha virt. eigenvalues --    0.23656   0.23983   0.24378   0.25139   0.25630
 Alpha virt. eigenvalues --    0.26026   0.26353   0.26945   0.27079   0.27807
 Alpha virt. eigenvalues --    0.28602   0.28729   0.29805   0.30265   0.31087
 Alpha virt. eigenvalues --    0.31369   0.31701   0.32342   0.33052   0.33750
 Alpha virt. eigenvalues --    0.34846   0.35587   0.36370   0.36664   0.37976
 Alpha virt. eigenvalues --    0.38787   0.42081   0.42869   0.45225   0.46433
 Alpha virt. eigenvalues --    0.48087   0.49584   0.50545   0.50997   0.51835
 Alpha virt. eigenvalues --    0.52558   0.53918   0.54341   0.54751   0.55155
 Alpha virt. eigenvalues --    0.55435   0.56392   0.56518   0.57626   0.58000
 Alpha virt. eigenvalues --    0.58283   0.58818   0.59756   0.60084   0.60817
 Alpha virt. eigenvalues --    0.61618   0.62410   0.62688   0.64355   0.64492
 Alpha virt. eigenvalues --    0.65654   0.67219   0.67771   0.67817   0.68259
 Alpha virt. eigenvalues --    0.68553   0.68876   0.69336   0.69432   0.70067
 Alpha virt. eigenvalues --    0.71827   0.71900   0.72925   0.73585   0.73908
 Alpha virt. eigenvalues --    0.74097   0.74767   0.75601   0.76549   0.76602
 Alpha virt. eigenvalues --    0.77768   0.78340   0.78691   0.79943   0.80590
 Alpha virt. eigenvalues --    0.81921   0.82936   0.83343   0.84300   0.85364
 Alpha virt. eigenvalues --    0.85651   0.87414   0.87674   0.88751   0.89297
 Alpha virt. eigenvalues --    0.89971   0.93595   0.94502   0.95176   0.95826
 Alpha virt. eigenvalues --    0.96827   0.98376   0.99175   0.99798   1.00635
 Alpha virt. eigenvalues --    1.02994   1.03914   1.04176   1.05489   1.07011
 Alpha virt. eigenvalues --    1.07656   1.07882   1.09380   1.11350   1.12261
 Alpha virt. eigenvalues --    1.12453   1.13217   1.14461   1.14950   1.15810
 Alpha virt. eigenvalues --    1.17937   1.18499   1.19677   1.20297   1.20757
 Alpha virt. eigenvalues --    1.21044   1.22011   1.23411   1.25946   1.26397
 Alpha virt. eigenvalues --    1.27121   1.27843   1.28148   1.30072   1.30515
 Alpha virt. eigenvalues --    1.31765   1.32418   1.33274   1.34363   1.35279
 Alpha virt. eigenvalues --    1.36327   1.36865   1.37445   1.37842   1.39278
 Alpha virt. eigenvalues --    1.40022   1.40821   1.41137   1.41566   1.42572
 Alpha virt. eigenvalues --    1.43936   1.44617   1.45725   1.47216   1.48263
 Alpha virt. eigenvalues --    1.48788   1.50912   1.51367   1.52811   1.53679
 Alpha virt. eigenvalues --    1.54920   1.55328   1.57587   1.59494   1.60653
 Alpha virt. eigenvalues --    1.63753   1.64465   1.67663   1.69905   1.70864
 Alpha virt. eigenvalues --    1.72913   1.73651   1.76037   1.76328   1.76919
 Alpha virt. eigenvalues --    1.77680   1.78808   1.80708   1.82853   1.85384
 Alpha virt. eigenvalues --    1.88191   1.90014   1.92974   1.93988   1.94227
 Alpha virt. eigenvalues --    2.02987   2.04309   2.05558   2.06168   2.10503
 Alpha virt. eigenvalues --    2.13410   2.21154   2.24823   2.28175   2.31481
 Alpha virt. eigenvalues --    2.33423   2.40007   2.42758   2.45723   2.48166
 Alpha virt. eigenvalues --    2.54347   2.56319   2.56881   2.61935   2.62554
 Alpha virt. eigenvalues --    2.63852   2.64383   2.67736   2.68562   2.69180
 Alpha virt. eigenvalues --    2.69618   2.73734   2.74740   2.75301   2.75686
 Alpha virt. eigenvalues --    2.76546   2.76820   2.77231   2.78027   2.79601
 Alpha virt. eigenvalues --    2.79966   2.81866   2.82634   2.83625   2.83826
 Alpha virt. eigenvalues --    2.83953   2.84548   2.85830   2.86784   2.86941
 Alpha virt. eigenvalues --    2.87384   2.88479   2.89575   2.89768   2.90576
 Alpha virt. eigenvalues --    2.90823   2.92356   2.92845   2.93735   2.96655
 Alpha virt. eigenvalues --    2.99012   2.99568   3.01639   3.03127   3.04148
 Alpha virt. eigenvalues --    3.05820   3.08895   3.09137   3.11619   3.11835
 Alpha virt. eigenvalues --    3.12516   3.13084   3.13635   3.13888   3.14665
 Alpha virt. eigenvalues --    3.15321   3.17244   3.17507   3.17867   3.19646
 Alpha virt. eigenvalues --    3.20166   3.20504   3.22064   3.23258   3.23740
 Alpha virt. eigenvalues --    3.24470   3.25324   3.27265   3.28066   3.29621
 Alpha virt. eigenvalues --    3.30229   3.31530   3.32344   3.33133   3.33694
 Alpha virt. eigenvalues --    3.34443   3.36099   3.38803   3.39315   3.40735
 Alpha virt. eigenvalues --    3.41624   3.42989   3.44685   3.44955   3.46248
 Alpha virt. eigenvalues --    3.47116   3.48829   3.49850   3.50877   3.51515
 Alpha virt. eigenvalues --    3.53278   3.53572   3.54628   3.55098   3.55735
 Alpha virt. eigenvalues --    3.57203   3.57298   3.62229   3.64978   3.65478
 Alpha virt. eigenvalues --    3.66612   3.67966   3.68508   3.68853   3.70207
 Alpha virt. eigenvalues --    3.72991   3.73923   3.74140   3.74556   3.75536
 Alpha virt. eigenvalues --    3.76208   3.77329   3.78443   3.78951   3.79916
 Alpha virt. eigenvalues --    3.83250   3.84513   3.84874   3.86432   3.88204
 Alpha virt. eigenvalues --    3.89388   3.93269   3.93936   3.95521   3.95975
 Alpha virt. eigenvalues --    3.97893   3.98060   3.99142   4.02193   4.02638
 Alpha virt. eigenvalues --    4.04349   4.06694   4.07766   4.10124   4.11234
 Alpha virt. eigenvalues --    4.11882   4.12234   4.15664   4.16104   4.16854
 Alpha virt. eigenvalues --    4.19122   4.20916   4.22889   4.24231   4.25944
 Alpha virt. eigenvalues --    4.27530   4.28430   4.31046   4.31210   4.33626
 Alpha virt. eigenvalues --    4.34746   4.35497   4.36137   4.36898   4.37687
 Alpha virt. eigenvalues --    4.38344   4.39039   4.41709   4.42187   4.43393
 Alpha virt. eigenvalues --    4.46011   4.46625   4.47086   4.48942   4.49835
 Alpha virt. eigenvalues --    4.51253   4.52100   4.54947   4.55596   4.57359
 Alpha virt. eigenvalues --    4.57451   4.59308   4.60078   4.60226   4.63698
 Alpha virt. eigenvalues --    4.65179   4.69829   4.72540   4.76068   4.77816
 Alpha virt. eigenvalues --    4.78262   4.79185   4.86345   4.88626   4.92747
 Alpha virt. eigenvalues --    4.94062   4.95524   4.96754   4.97451   5.07679
 Alpha virt. eigenvalues --    5.09248   5.11876   5.12690   5.14568   5.15703
 Alpha virt. eigenvalues --    5.18166   5.20982   5.23937   5.24549   5.27171
 Alpha virt. eigenvalues --    5.32195   5.33214   5.37462   5.40468   5.47164
 Alpha virt. eigenvalues --    5.48280   5.50214   5.51107   5.56741   5.57735
 Alpha virt. eigenvalues --    5.58710   5.66353   5.70700   5.72680   5.74281
 Alpha virt. eigenvalues --    5.75510   5.81324   5.85242   5.88776   5.89727
 Alpha virt. eigenvalues --    6.02863   6.08268   6.12417   6.41123   6.52674
 Alpha virt. eigenvalues --    6.63172   6.81051   6.87372   6.93114   7.05253
 Alpha virt. eigenvalues --    7.12284   7.21038   7.28842   7.36899   7.47425
 Alpha virt. eigenvalues --    7.65990   7.70698   7.98993  23.92141  24.20036
 Alpha virt. eigenvalues --   24.50942  24.58749  24.62700  24.65779  24.66925
 Alpha virt. eigenvalues --   24.76032  24.80497  25.07534  25.21733  49.98221
 Alpha virt. eigenvalues --   50.08382
  Beta  occ. eigenvalues --  -19.70320 -19.68435 -10.56516 -10.55831 -10.55414
  Beta  occ. eigenvalues --  -10.55154 -10.55004 -10.54944 -10.54745 -10.54658
  Beta  occ. eigenvalues --  -10.54614 -10.54559 -10.54486  -1.24950  -1.02991
  Beta  occ. eigenvalues --   -0.98877  -0.92959  -0.88801  -0.84619  -0.82780
  Beta  occ. eigenvalues --   -0.77495  -0.71604  -0.69822  -0.66881  -0.61493
  Beta  occ. eigenvalues --   -0.59363  -0.58917  -0.57911  -0.56590  -0.51754
  Beta  occ. eigenvalues --   -0.51454  -0.50535  -0.49965  -0.48666  -0.47840
  Beta  occ. eigenvalues --   -0.46126  -0.45975  -0.43536  -0.41671  -0.39890
  Beta  occ. eigenvalues --   -0.39693  -0.38958  -0.37411  -0.34279  -0.30621
  Beta  occ. eigenvalues --   -0.26339
  Beta virt. eigenvalues --   -0.06836  -0.02867   0.00709   0.00938   0.01525
  Beta virt. eigenvalues --    0.02065   0.02922   0.03799   0.03955   0.04478
  Beta virt. eigenvalues --    0.05031   0.05964   0.06472   0.07168   0.07545
  Beta virt. eigenvalues --    0.08094   0.09006   0.09298   0.10005   0.10404
  Beta virt. eigenvalues --    0.11095   0.11526   0.12566   0.13416   0.13836
  Beta virt. eigenvalues --    0.13896   0.14570   0.15194   0.15882   0.16027
  Beta virt. eigenvalues --    0.16865   0.17334   0.17697   0.18250   0.18961
  Beta virt. eigenvalues --    0.19189   0.19532   0.20052   0.20413   0.20637
  Beta virt. eigenvalues --    0.21314   0.22176   0.22328   0.22626   0.23107
  Beta virt. eigenvalues --    0.23323   0.23843   0.24092   0.24417   0.25124
  Beta virt. eigenvalues --    0.25671   0.26119   0.26542   0.26995   0.27126
  Beta virt. eigenvalues --    0.27953   0.28789   0.28828   0.29841   0.30376
  Beta virt. eigenvalues --    0.31286   0.31590   0.31837   0.32461   0.33153
  Beta virt. eigenvalues --    0.33672   0.34999   0.35619   0.36477   0.36805
  Beta virt. eigenvalues --    0.37956   0.39048   0.42123   0.42991   0.45437
  Beta virt. eigenvalues --    0.46780   0.48190   0.49954   0.50670   0.51086
  Beta virt. eigenvalues --    0.52138   0.52872   0.53932   0.54427   0.54985
  Beta virt. eigenvalues --    0.55378   0.55585   0.56451   0.56545   0.57798
  Beta virt. eigenvalues --    0.58067   0.58584   0.58975   0.59876   0.60167
  Beta virt. eigenvalues --    0.60927   0.61668   0.62537   0.63228   0.64408
  Beta virt. eigenvalues --    0.64532   0.65689   0.67228   0.67825   0.68073
  Beta virt. eigenvalues --    0.68359   0.68655   0.69052   0.69447   0.69580
  Beta virt. eigenvalues --    0.70105   0.71964   0.71986   0.73008   0.73646
  Beta virt. eigenvalues --    0.73967   0.74137   0.74824   0.75629   0.76635
  Beta virt. eigenvalues --    0.76677   0.78238   0.78525   0.78854   0.79982
  Beta virt. eigenvalues --    0.81989   0.82084   0.83063   0.83569   0.84347
  Beta virt. eigenvalues --    0.85510   0.85716   0.87567   0.87917   0.88985
  Beta virt. eigenvalues --    0.89347   0.90079   0.93771   0.94706   0.95433
  Beta virt. eigenvalues --    0.95894   0.97283   0.98622   0.99510   1.00248
  Beta virt. eigenvalues --    1.00858   1.03172   1.03944   1.04286   1.05693
  Beta virt. eigenvalues --    1.07071   1.07757   1.08385   1.09421   1.11498
  Beta virt. eigenvalues --    1.12323   1.12600   1.13312   1.14702   1.15003
  Beta virt. eigenvalues --    1.16029   1.18070   1.18851   1.19858   1.20541
  Beta virt. eigenvalues --    1.20955   1.21188   1.22141   1.23939   1.26071
  Beta virt. eigenvalues --    1.26552   1.27505   1.27998   1.28297   1.30482
  Beta virt. eigenvalues --    1.30874   1.31884   1.32600   1.33371   1.34393
  Beta virt. eigenvalues --    1.35401   1.36366   1.36967   1.37743   1.37877
  Beta virt. eigenvalues --    1.39420   1.40195   1.40899   1.41278   1.41850
  Beta virt. eigenvalues --    1.42806   1.44162   1.44842   1.46249   1.47864
  Beta virt. eigenvalues --    1.48330   1.48874   1.51170   1.51455   1.52902
  Beta virt. eigenvalues --    1.54132   1.55382   1.55748   1.57944   1.59805
  Beta virt. eigenvalues --    1.61095   1.64324   1.65250   1.67817   1.69987
  Beta virt. eigenvalues --    1.70911   1.73213   1.73740   1.76065   1.76453
  Beta virt. eigenvalues --    1.77009   1.77748   1.79174   1.80837   1.82975
  Beta virt. eigenvalues --    1.85637   1.88486   1.90313   1.93134   1.94094
  Beta virt. eigenvalues --    1.94431   2.03036   2.04360   2.06067   2.06216
  Beta virt. eigenvalues --    2.10815   2.13552   2.21726   2.25745   2.28801
  Beta virt. eigenvalues --    2.32205   2.34470   2.41032   2.43570   2.46630
  Beta virt. eigenvalues --    2.48290   2.54367   2.56490   2.57082   2.62059
  Beta virt. eigenvalues --    2.62654   2.63951   2.64469   2.67873   2.68796
  Beta virt. eigenvalues --    2.69280   2.69815   2.74028   2.74892   2.75272
  Beta virt. eigenvalues --    2.75644   2.76742   2.76979   2.77455   2.78253
  Beta virt. eigenvalues --    2.79719   2.79951   2.81896   2.82615   2.83463
  Beta virt. eigenvalues --    2.83837   2.84017   2.84867   2.85860   2.86880
  Beta virt. eigenvalues --    2.87068   2.87399   2.88487   2.89736   2.89938
  Beta virt. eigenvalues --    2.90774   2.90977   2.92417   2.92886   2.93772
  Beta virt. eigenvalues --    2.97015   2.99292   2.99678   3.02168   3.03348
  Beta virt. eigenvalues --    3.04576   3.06248   3.09269   3.10700   3.11857
  Beta virt. eigenvalues --    3.12039   3.13102   3.13557   3.13739   3.14180
  Beta virt. eigenvalues --    3.14848   3.15573   3.17433   3.17607   3.18110
  Beta virt. eigenvalues --    3.19817   3.20432   3.20829   3.22486   3.23452
  Beta virt. eigenvalues --    3.24217   3.24749   3.25822   3.27934   3.28631
  Beta virt. eigenvalues --    3.30133   3.31060   3.31591   3.32770   3.33419
  Beta virt. eigenvalues --    3.34298   3.35221   3.36813   3.39078   3.39702
  Beta virt. eigenvalues --    3.41156   3.41768   3.43183   3.45089   3.45241
  Beta virt. eigenvalues --    3.46725   3.47399   3.49221   3.49961   3.50953
  Beta virt. eigenvalues --    3.51941   3.53628   3.54224   3.54844   3.55255
  Beta virt. eigenvalues --    3.56702   3.57895   3.59880   3.63283   3.65521
  Beta virt. eigenvalues --    3.65782   3.67540   3.68538   3.68763   3.69213
  Beta virt. eigenvalues --    3.70412   3.73287   3.74219   3.74624   3.74882
  Beta virt. eigenvalues --    3.75925   3.76309   3.77487   3.78883   3.79584
  Beta virt. eigenvalues --    3.80244   3.83534   3.85078   3.85839   3.87065
  Beta virt. eigenvalues --    3.88428   3.89573   3.93715   3.94801   3.95721
  Beta virt. eigenvalues --    3.97656   3.98271   3.99033   3.99566   4.02809
  Beta virt. eigenvalues --    4.04320   4.04840   4.07144   4.07848   4.10297
  Beta virt. eigenvalues --    4.11380   4.12579   4.12922   4.16235   4.16608
  Beta virt. eigenvalues --    4.17352   4.19498   4.21050   4.23322   4.24519
  Beta virt. eigenvalues --    4.26638   4.28008   4.28932   4.31296   4.31913
  Beta virt. eigenvalues --    4.33999   4.35151   4.35965   4.36203   4.37411
  Beta virt. eigenvalues --    4.37929   4.38593   4.39158   4.41917   4.42431
  Beta virt. eigenvalues --    4.43654   4.46263   4.46854   4.47259   4.49135
  Beta virt. eigenvalues --    4.50071   4.51336   4.52211   4.55230   4.55582
  Beta virt. eigenvalues --    4.57523   4.57739   4.59521   4.60302   4.60365
  Beta virt. eigenvalues --    4.64092   4.65835   4.70472   4.72690   4.76432
  Beta virt. eigenvalues --    4.78191   4.78461   4.79510   4.86944   4.89005
  Beta virt. eigenvalues --    4.92815   4.94450   4.95771   4.96834   4.97890
  Beta virt. eigenvalues --    5.07800   5.09540   5.12301   5.13273   5.15121
  Beta virt. eigenvalues --    5.15928   5.18722   5.21126   5.24309   5.24823
  Beta virt. eigenvalues --    5.28022   5.33110   5.34548   5.38104   5.41300
  Beta virt. eigenvalues --    5.47394   5.48395   5.51199   5.52428   5.57781
  Beta virt. eigenvalues --    5.57930   5.60858   5.67474   5.70887   5.72869
  Beta virt. eigenvalues --    5.74861   5.76172   5.81585   5.85456   5.89412
  Beta virt. eigenvalues --    5.90324   6.03016   6.09129   6.12520   6.41152
  Beta virt. eigenvalues --    6.52756   6.63778   6.81981   6.87639   6.94093
  Beta virt. eigenvalues --    7.05761   7.15172   7.22998   7.30298   7.37691
  Beta virt. eigenvalues --    7.48601   7.68252   7.72400   7.99252  23.92145
  Beta virt. eigenvalues --   24.20041  24.51895  24.58825  24.62816  24.65846
  Beta virt. eigenvalues --   24.67094  24.76089  24.80510  25.07548  25.21737
  Beta virt. eigenvalues --   49.98210  50.07724
          Condensed to atoms (all electrons):
               1          2          3          4          5          6
     1  C   10.971199  -2.656292   0.120975   0.376088   0.675024   0.049528
     2  C   -2.656292   9.578629  -2.003421   0.010700  -1.326762   0.298224
     3  C    0.120975  -2.003421   9.587207  -0.063179   1.748554   0.020766
     4  H    0.376088   0.010700  -0.063179   0.454806   0.020248  -0.006063
     5  C    0.675024  -1.326762   1.748554   0.020248  11.271289   0.040489
     6  H    0.049528   0.298224   0.020766  -0.006063   0.040489   0.481898
     7  C    1.102903  -0.542295   0.424593  -0.021630  -0.754034   0.022424
     8  H    0.002159   0.034003  -0.034327  -0.000136   0.344454  -0.007022
     9  C   -3.191799   2.734564  -1.003159   0.007943  -5.782624  -0.064241
    10  C   -0.960251   0.412545  -0.312016  -0.001377   0.093996  -0.001040
    11  C   -0.278408   0.205317  -0.236209   0.000082   0.049567  -0.001291
    12  H    0.021007   0.001008   0.029920  -0.000011  -0.001468  -0.000002
    13  C    0.054293  -0.233280  -0.518936   0.001959  -0.079585   0.008745
    14  C    0.077011  -0.253329  -0.215829  -0.000964  -0.468743   0.001124
    15  H    0.011387   0.011402  -0.006881  -0.000003   0.085460  -0.000008
    16  H   -0.000660  -0.001256   0.001462  -0.000001   0.006900   0.000000
    17  H    0.000365  -0.001280   0.006718   0.000000   0.011142  -0.000001
    18  C   -0.056109   0.226019  -1.747991   0.038362   0.079222   0.003574
    19  H    0.082923   0.076606  -0.332784   0.006458   0.007562  -0.000098
    20  H    0.071725  -0.007494  -0.050549   0.000018   0.009684   0.000009
    21  H   -0.083738   0.012755  -0.031266   0.000113  -0.007039   0.000006
    22  O   -0.167549  -0.026875   0.316812  -0.005504  -0.011356   0.000096
    23  O   -0.002377   0.007032   0.024326   0.000952   0.002096  -0.000002
    24  H    0.000923  -0.000668   0.017007   0.000058   0.000035   0.000000
               7          8          9         10         11         12
     1  C    1.102903   0.002159  -3.191799  -0.960251  -0.278408   0.021007
     2  C   -0.542295   0.034003   2.734564   0.412545   0.205317   0.001008
     3  C    0.424593  -0.034327  -1.003159  -0.312016  -0.236209   0.029920
     4  H   -0.021630  -0.000136   0.007943  -0.001377   0.000082  -0.000011
     5  C   -0.754034   0.344454  -5.782624   0.093996   0.049567  -0.001468
     6  H    0.022424  -0.007022  -0.064241  -0.001040  -0.001291  -0.000002
     7  C   10.075376  -0.061252  -2.057562   0.427044  -0.044139  -0.018589
     8  H   -0.061252   0.483138   0.008403   0.008239   0.001681   0.000014
     9  C   -2.057562   0.008403  17.152378  -1.479934  -0.324871   0.029823
    10  C    0.427044   0.008239  -1.479934   7.965940  -0.268603   0.320655
    11  C   -0.044139   0.001681  -0.324871  -0.268603   7.535198  -0.041578
    12  H   -0.018589   0.000014   0.029823   0.320655  -0.041578   0.481749
    13  C   -0.326261   0.056748  -1.273311   0.738050  -0.836073  -0.022677
    14  C   -0.796921   0.007985   0.778688  -0.293127   0.278148   0.001817
    15  H   -0.108519   0.002413  -0.058878  -0.003665   0.005428   0.000040
    16  H    0.000622  -0.000003   0.028593  -0.045547   0.364988  -0.006431
    17  H    0.038084  -0.000014  -0.034205   0.027806   0.019060  -0.000118
    18  C   -1.517656  -0.001859   0.018897  -0.532104   0.040791   0.041649
    19  H   -0.033216   0.000004  -0.046883  -0.032965   0.000437   0.000725
    20  H    0.025388  -0.000001  -0.054776  -0.041322  -0.008696  -0.002552
    21  H   -0.020699  -0.000002   0.047109   0.063923   0.022437  -0.004185
    22  O    0.020885  -0.000001   0.048099   0.037535  -0.000218  -0.000169
    23  O    0.004291   0.000000   0.007335  -0.000840  -0.001231   0.000061
    24  H    0.000954   0.000000   0.001545  -0.001510  -0.000233   0.000004
              13         14         15         16         17         18
     1  C    0.054293   0.077011   0.011387  -0.000660   0.000365  -0.056109
     2  C   -0.233280  -0.253329   0.011402  -0.001256  -0.001280   0.226019
     3  C   -0.518936  -0.215829  -0.006881   0.001462   0.006718  -1.747991
     4  H    0.001959  -0.000964  -0.000003  -0.000001   0.000000   0.038362
     5  C   -0.079585  -0.468743   0.085460   0.006900   0.011142   0.079222
     6  H    0.008745   0.001124  -0.000008   0.000000  -0.000001   0.003574
     7  C   -0.326261  -0.796921  -0.108519   0.000622   0.038084  -1.517656
     8  H    0.056748   0.007985   0.002413  -0.000003  -0.000014  -0.001859
     9  C   -1.273311   0.778688  -0.058878   0.028593  -0.034205   0.018897
    10  C    0.738050  -0.293127  -0.003665  -0.045547   0.027806  -0.532104
    11  C   -0.836073   0.278148   0.005428   0.364988   0.019060   0.040791
    12  H   -0.022677   0.001817   0.000040  -0.006431  -0.000118   0.041649
    13  C    7.274191   0.880493   0.433561   0.006532  -0.052227  -0.112665
    14  C    0.880493   6.020883  -0.001354   0.016385   0.363450  -0.037657
    15  H    0.433561  -0.001354   0.484400  -0.000112  -0.006475  -0.001675
    16  H    0.006532   0.016385  -0.000112   0.481168  -0.006627   0.002208
    17  H   -0.052227   0.363450  -0.006475  -0.006627   0.483637   0.000139
    18  C   -0.112665  -0.037657  -0.001675   0.002208   0.000139   9.678351
    19  H    0.001210  -0.001342  -0.000000  -0.000004   0.000000   0.369925
    20  H    0.000886  -0.002603  -0.000000   0.000010   0.000000   0.403216
    21  H   -0.001879   0.001283  -0.000001   0.000020  -0.000000   0.348869
    22  O   -0.001573   0.000966   0.000000   0.000001  -0.000000  -0.296635
    23  O    0.000477  -0.000044  -0.000000  -0.000000   0.000000   0.046516
    24  H    0.000043  -0.000002   0.000000   0.000000   0.000000  -0.026647
              19         20         21         22         23         24
     1  C    0.082923   0.071725  -0.083738  -0.167549  -0.002377   0.000923
     2  C    0.076606  -0.007494   0.012755  -0.026875   0.007032  -0.000668
     3  C   -0.332784  -0.050549  -0.031266   0.316812   0.024326   0.017007
     4  H    0.006458   0.000018   0.000113  -0.005504   0.000952   0.000058
     5  C    0.007562   0.009684  -0.007039  -0.011356   0.002096   0.000035
     6  H   -0.000098   0.000009   0.000006   0.000096  -0.000002   0.000000
     7  C   -0.033216   0.025388  -0.020699   0.020885   0.004291   0.000954
     8  H    0.000004  -0.000001  -0.000002  -0.000001   0.000000   0.000000
     9  C   -0.046883  -0.054776   0.047109   0.048099   0.007335   0.001545
    10  C   -0.032965  -0.041322   0.063923   0.037535  -0.000840  -0.001510
    11  C    0.000437  -0.008696   0.022437  -0.000218  -0.001231  -0.000233
    12  H    0.000725  -0.002552  -0.004185  -0.000169   0.000061   0.000004
    13  C    0.001210   0.000886  -0.001879  -0.001573   0.000477   0.000043
    14  C   -0.001342  -0.002603   0.001283   0.000966  -0.000044  -0.000002
    15  H   -0.000000  -0.000000  -0.000001   0.000000  -0.000000   0.000000
    16  H   -0.000004   0.000010   0.000020   0.000001  -0.000000   0.000000
    17  H    0.000000   0.000000  -0.000000  -0.000000   0.000000   0.000000
    18  C    0.369925   0.403216   0.348869  -0.296635   0.046516  -0.026647
    19  H    0.514962  -0.004889  -0.015528  -0.028500  -0.070405   0.006375
    20  H   -0.004889   0.490245  -0.042119  -0.000903   0.004130  -0.000011
    21  H   -0.015528  -0.042119   0.530749  -0.000050  -0.001459   0.000426
    22  O   -0.028500  -0.000903  -0.000050   8.302687   0.113812  -0.039849
    23  O   -0.070405   0.004130  -0.001459   0.113812   7.865405   0.231149
    24  H    0.006375  -0.000011   0.000426  -0.039849   0.231149   0.534390
          Atomic-Atomic Spin Densities.
               1          2          3          4          5          6
     1  C    0.331694  -0.083249  -0.111521  -0.004690  -0.050933   0.004128
     2  C   -0.083249   0.136248  -0.098672   0.001759   0.054683  -0.002350
     3  C   -0.111521  -0.098672   0.264948   0.003305  -0.038798   0.000228
     4  H   -0.004690   0.001759   0.003305  -0.000786   0.000757  -0.000011
     5  C   -0.050933   0.054683  -0.038798   0.000757   0.026156  -0.001692
     6  H    0.004128  -0.002350   0.000228  -0.000011  -0.001692   0.000061
     7  C   -0.056420   0.047324  -0.011648   0.000398  -0.010815  -0.000046
     8  H    0.000586  -0.000331  -0.000186  -0.000002   0.000316   0.000026
     9  C   -0.129779  -0.027328   0.105052   0.001027   0.017284   0.000002
    10  C   -0.052634  -0.001583  -0.012409   0.000055  -0.022608   0.000016
    11  C    0.028015  -0.011389   0.020721  -0.000071   0.011095   0.000019
    12  H   -0.001780   0.000365  -0.000487   0.000003  -0.000474  -0.000000
    13  C   -0.063149   0.041799  -0.024115   0.000364  -0.011711  -0.000498
    14  C   -0.014416   0.004799  -0.012072   0.000001  -0.009437  -0.000024
    15  H    0.000660  -0.000393   0.000674  -0.000000   0.000722   0.000002
    16  H    0.000053  -0.000024   0.000153  -0.000000   0.000067   0.000000
    17  H   -0.000033   0.000016  -0.000048   0.000000  -0.000083  -0.000000
    18  C    0.247741  -0.043477  -0.172087  -0.000947   0.041325   0.000268
    19  H    0.004629   0.006302   0.003531   0.000125   0.002876  -0.000000
    20  H    0.015993  -0.002823  -0.000826  -0.000094   0.000363   0.000000
    21  H    0.004937  -0.002692   0.001315  -0.000057  -0.000040   0.000000
    22  O    0.008153  -0.019452  -0.022418  -0.001170  -0.003805   0.000018
    23  O   -0.000151   0.004638   0.010337   0.000254   0.000371  -0.000002
    24  H   -0.000200  -0.000229  -0.001186  -0.000013  -0.000007   0.000000
               7          8          9         10         11         12
     1  C   -0.056420   0.000586  -0.129779  -0.052634   0.028015  -0.001780
     2  C    0.047324  -0.000331  -0.027328  -0.001583  -0.011389   0.000365
     3  C   -0.011648  -0.000186   0.105052  -0.012409   0.020721  -0.000487
     4  H    0.000398  -0.000002   0.001027   0.000055  -0.000071   0.000003
     5  C   -0.010815   0.000316   0.017284  -0.022608   0.011095  -0.000474
     6  H   -0.000046   0.000026   0.000002   0.000016   0.000019  -0.000000
     7  C   -0.032007  -0.000010   0.078537  -0.010627   0.009866   0.000356
     8  H   -0.000010  -0.000151  -0.000651  -0.000105  -0.000005  -0.000000
     9  C    0.078537  -0.000651   0.093566   0.078846  -0.034080   0.005670
    10  C   -0.010627  -0.000105   0.078846   0.113881  -0.044655   0.006447
    11  C    0.009866  -0.000005  -0.034080  -0.044655   0.012136  -0.004070
    12  H    0.000356  -0.000000   0.005670   0.006447  -0.004070  -0.006866
    13  C   -0.010220   0.000276   0.029286   0.019841  -0.004061   0.000829
    14  C   -0.011580   0.000143   0.023987   0.015126  -0.009996  -0.000484
    15  H    0.001130  -0.000002  -0.000568  -0.000837   0.000210  -0.000001
    16  H    0.000286   0.000000  -0.000123  -0.002078   0.000973   0.000146
    17  H   -0.000100  -0.000000   0.000131   0.000016  -0.000149   0.000002
    18  C    0.005388  -0.000017  -0.230929  -0.095168   0.024297  -0.008070
    19  H    0.001380   0.000000  -0.003878   0.003268   0.001231  -0.000057
    20  H    0.002971   0.000000  -0.011222  -0.008448  -0.001115   0.000227
    21  H    0.000900   0.000000  -0.005492  -0.002340  -0.000310   0.000290
    22  O   -0.004917   0.000001  -0.011796  -0.000310   0.000347  -0.000110
    23  O    0.001098  -0.000000   0.004439  -0.000462  -0.000278   0.000024
    24  H   -0.000049   0.000000  -0.000245   0.000047   0.000012  -0.000001
              13         14         15         16         17         18
     1  C   -0.063149  -0.014416   0.000660   0.000053  -0.000033   0.247741
     2  C    0.041799   0.004799  -0.000393  -0.000024   0.000016  -0.043477
     3  C   -0.024115  -0.012072   0.000674   0.000153  -0.000048  -0.172087
     4  H    0.000364   0.000001  -0.000000  -0.000000   0.000000  -0.000947
     5  C   -0.011711  -0.009437   0.000722   0.000067  -0.000083   0.041325
     6  H   -0.000498  -0.000024   0.000002   0.000000  -0.000000   0.000268
     7  C   -0.010220  -0.011580   0.001130   0.000286  -0.000100   0.005388
     8  H    0.000276   0.000143  -0.000002   0.000000  -0.000000  -0.000017
     9  C    0.029286   0.023987  -0.000568  -0.000123   0.000131  -0.230929
    10  C    0.019841   0.015126  -0.000837  -0.002078   0.000016  -0.095168
    11  C   -0.004061  -0.009996   0.000210   0.000973  -0.000149   0.024297
    12  H    0.000829  -0.000484  -0.000001   0.000146   0.000002  -0.008070
    13  C    0.040104   0.005671  -0.001487  -0.000094   0.000173  -0.021605
    14  C    0.005671   0.009986  -0.000267   0.000507   0.000044  -0.003485
    15  H   -0.001487  -0.000267   0.000248   0.000002  -0.000010   0.000144
    16  H   -0.000094   0.000507   0.000002  -0.000190  -0.000011   0.000250
    17  H    0.000173   0.000044  -0.000010  -0.000011   0.000168  -0.000009
    18  C   -0.021605  -0.003485   0.000144   0.000250  -0.000009   1.148302
    19  H    0.000064  -0.000282   0.000000   0.000000   0.000000  -0.007559
    20  H   -0.000278   0.000011   0.000000   0.000000  -0.000000  -0.005789
    21  H   -0.000393   0.000222   0.000000   0.000001  -0.000000  -0.006508
    22  O   -0.001206   0.000177   0.000000   0.000001  -0.000000  -0.166323
    23  O    0.000234  -0.000017  -0.000000  -0.000000   0.000000   0.029868
    24  H   -0.000007   0.000000   0.000000   0.000000  -0.000000  -0.001064
              19         20         21         22         23         24
     1  C    0.004629   0.015993   0.004937   0.008153  -0.000151  -0.000200
     2  C    0.006302  -0.002823  -0.002692  -0.019452   0.004638  -0.000229
     3  C    0.003531  -0.000826   0.001315  -0.022418   0.010337  -0.001186
     4  H    0.000125  -0.000094  -0.000057  -0.001170   0.000254  -0.000013
     5  C    0.002876   0.000363  -0.000040  -0.003805   0.000371  -0.000007
     6  H   -0.000000   0.000000   0.000000   0.000018  -0.000002   0.000000
     7  C    0.001380   0.002971   0.000900  -0.004917   0.001098  -0.000049
     8  H    0.000000   0.000000   0.000000   0.000001  -0.000000   0.000000
     9  C   -0.003878  -0.011222  -0.005492  -0.011796   0.004439  -0.000245
    10  C    0.003268  -0.008448  -0.002340  -0.000310  -0.000462   0.000047
    11  C    0.001231  -0.001115  -0.000310   0.000347  -0.000278   0.000012
    12  H   -0.000057   0.000227   0.000290  -0.000110   0.000024  -0.000001
    13  C    0.000064  -0.000278  -0.000393  -0.001206   0.000234  -0.000007
    14  C   -0.000282   0.000011   0.000222   0.000177  -0.000017   0.000000
    15  H    0.000000   0.000000   0.000000   0.000000  -0.000000   0.000000
    16  H    0.000000   0.000000   0.000001   0.000001  -0.000000   0.000000
    17  H    0.000000  -0.000000  -0.000000  -0.000000   0.000000  -0.000000
    18  C   -0.007559  -0.005789  -0.006508  -0.166323   0.029868  -0.001064
    19  H   -0.097007   0.003511   0.003830   0.065055  -0.004737   0.000155
    20  H    0.003511  -0.031052   0.001761   0.006139  -0.002042   0.000076
    21  H    0.003830   0.001761  -0.032170   0.003994  -0.001033   0.000015
    22  O    0.065055   0.006139   0.003994   0.563232  -0.065544   0.004783
    23  O   -0.004737  -0.002042  -0.001033  -0.065544   0.074944  -0.003417
    24  H    0.000155   0.000076   0.000015   0.004783  -0.003417   0.000566
 Mulliken charges and spin densities:
               1          2
     1  C   -0.220329   0.077633
     2  C   -0.555849   0.003939
     3  C    0.258206  -0.096209
     4  H    0.181082   0.000206
     5  C   -0.014111   0.005613
     6  H    0.152883   0.000145
     7  C    0.160210   0.001193
     8  H    0.155375  -0.000111
     9  C    0.508865  -0.018262
    10  C   -0.121433  -0.016719
    11  C   -0.481585  -0.001256
    12  H    0.169307  -0.008042
    13  C    0.001279  -0.000183
    14  C   -0.356319  -0.001385
    15  H    0.153482   0.000226
    16  H    0.151751  -0.000080
    17  H    0.150545   0.000106
    18  C   -0.966742   0.734544
    19  H    0.499426  -0.017562
    20  H    0.210606  -0.032638
    21  H    0.180274  -0.033770
    22  O   -0.261712   0.354846
    23  O   -0.231222   0.048523
    24  H    0.276011  -0.000762
 Sum of Mulliken charges =  -0.00000   1.00000
 Mulliken charges and spin densities with hydrogens summed into heavy atoms:
               1          2
     1  C   -0.039247   0.077840
     2  C   -0.402966   0.004084
     3  C    0.258206  -0.096209
     5  C    0.141264   0.005503
     7  C    0.160210   0.001193
     9  C    0.508865  -0.018262
    10  C    0.047875  -0.024760
    11  C   -0.329834  -0.001336
    13  C    0.154761   0.000043
    14  C   -0.205774  -0.001279
    18  C   -0.575862   0.668137
    22  O    0.237714   0.337284
    23  O    0.044789   0.047762
 Electronic spatial extent (au):  <R**2>=           3008.7862
 Charge=              0.0000 electrons
 Dipole moment (field-independent basis, Debye):
    X=             -0.5284    Y=             -1.4956    Z=              0.5589  Tot=              1.6818
 Quadrupole moment (field-independent basis, Debye-Ang):
   XX=            -69.2368   YY=            -67.0716   ZZ=            -82.8574
   XY=             -6.7878   XZ=              3.6363   YZ=             -1.3116
 Traceless Quadrupole moment (field-independent basis, Debye-Ang):
   XX=              3.8184   YY=              5.9837   ZZ=             -9.8021
   XY=             -6.7878   XZ=              3.6363   YZ=             -1.3116
 Octapole moment (field-independent basis, Debye-Ang**2):
  XXX=             34.7965  YYY=             -3.0356  ZZZ=              0.1931  XYY=             16.7704
  XXY=            -38.3390  XXZ=             18.5939  XZZ=             19.1857  YZZ=             -3.7190
  YYZ=              1.0540  XYZ=             -5.2224
 Hexadecapole moment (field-independent basis, Debye-Ang**3):
 XXXX=          -2461.9708 YYYY=           -896.3429 ZZZZ=           -114.4119 XXXY=           -206.4156
 XXXZ=            106.9331 YYYX=            -20.2200 YYYZ=             -3.5801 ZZZX=             -1.7361
 ZZZY=              0.6145 XXYY=           -532.7943 XXZZ=           -534.9265 YYZZ=           -202.8223
 XXYZ=            -26.3590 YYXZ=              6.6688 ZZXY=            -12.5629
 N-N= 7.239876745874D+02 E-N=-2.790710729861D+03  KE= 5.740083881658D+02
                          Isotropic Fermi Contact Couplings
        Atom                 a.u.       MegaHertz       Gauss      10(-4) cm-1
     1  C(13)              0.01411      15.86637       5.66152       5.29245
     2  C(13)             -0.00006      -0.06265      -0.02236      -0.02090
     3  C(13)             -0.00273      -3.06610      -1.09406      -1.02274
     4  H(1)              -0.00033      -1.47405      -0.52598      -0.49169
     5  C(13)              0.00017       0.19130       0.06826       0.06381
     6  H(1)               0.00006       0.25113       0.08961       0.08377
     7  C(13)              0.00338       3.79926       1.35567       1.26730
     8  H(1)              -0.00004      -0.15869      -0.05663      -0.05293
     9  C(13)              0.02733      30.72545      10.96360      10.24891
    10  C(13)              0.00483       5.43537       1.93947       1.81304
    11  C(13)              0.00034       0.38587       0.13769       0.12871
    12  H(1)               0.00015       0.66233       0.23633       0.22093
    13  C(13)              0.00159       1.78838       0.63814       0.59654
    14  C(13)              0.00038       0.43163       0.15402       0.14398
    15  H(1)               0.00015       0.65445       0.23353       0.21830
    16  H(1)               0.00002       0.10883       0.03883       0.03630
    17  H(1)               0.00002       0.07936       0.02832       0.02647
    18  C(13)              0.31199     350.74098     125.15311     116.99460
    19  H(1)              -0.02457    -109.80691     -39.18184     -36.62764
    20  H(1)              -0.00458     -20.45846      -7.30009      -6.82421
    21  H(1)              -0.00681     -30.43142     -10.85869     -10.15083
    22  O(17)              0.26229    -158.99693     -56.73406     -53.03567
    23  O(17)              0.01122      -6.80273      -2.42738      -2.26915
    24  H(1)              -0.00024      -1.06653      -0.38056      -0.35576
 --------------------------------------------------------
       Center         ----  Spin Dipole Couplings  ----
                      3XX-RR        3YY-RR        3ZZ-RR
 --------------------------------------------------------
     1   Atom       -0.005856      0.014010     -0.008153
     2   Atom        0.000642      0.003064     -0.003706
     3   Atom        0.030613     -0.007578     -0.023035
     4   Atom       -0.003254      0.011071     -0.007817
     5   Atom        0.000222     -0.000122     -0.000100
     6   Atom       -0.000231      0.001595     -0.001363
     7   Atom        0.005890     -0.000650     -0.005239
     8   Atom        0.000613      0.000220     -0.000833
     9   Atom        0.034465     -0.017237     -0.017228
    10   Atom        0.008779     -0.001766     -0.007012
    11   Atom        0.002411     -0.001132     -0.001279
    12   Atom        0.005409      0.000765     -0.006174
    13   Atom        0.003162     -0.001759     -0.001403
    14   Atom        0.002240     -0.000318     -0.001922
    15   Atom        0.001076     -0.000398     -0.000679
    16   Atom        0.001133     -0.000222     -0.000911
    17   Atom        0.000888     -0.000373     -0.000515
    18   Atom        0.463896     -0.112148     -0.351748
    19   Atom        0.354890     -0.162455     -0.192435
    20   Atom       -0.013446     -0.010003      0.023449
    21   Atom       -0.013521      0.000538      0.012983
    22   Atom        0.644628     -0.207887     -0.436741
    23   Atom        0.338078     -0.136107     -0.201972
    24   Atom        0.011391     -0.001262     -0.010129
 --------------------------------------------------------
                        XY            XZ            YZ
 --------------------------------------------------------
     1   Atom       -0.010284      0.001696     -0.006117
     2   Atom       -0.002996      0.000383     -0.000362
     3   Atom       -0.015941      0.003982     -0.001644
     4   Atom       -0.003762      0.000661     -0.001513
     5   Atom       -0.002068      0.000196      0.000593
     6   Atom       -0.001535      0.000135     -0.000156
     7   Atom       -0.005056      0.000039     -0.000050
     8   Atom       -0.001202      0.000068     -0.000047
     9   Atom        0.004386     -0.004665     -0.000591
    10   Atom       -0.000519      0.000603     -0.000229
    11   Atom        0.001255     -0.000201      0.000012
    12   Atom        0.005518     -0.000008      0.000028
    13   Atom       -0.000082     -0.000467     -0.000067
    14   Atom        0.000127      0.000023     -0.000035
    15   Atom       -0.000535      0.000043     -0.000034
    16   Atom        0.001124      0.000031     -0.000003
    17   Atom        0.000159      0.000028      0.000006
    18   Atom        0.462092      0.098443      0.054069
    19   Atom        0.152979      0.092129      0.023350
    20   Atom        0.013792     -0.000778      0.042784
    21   Atom        0.022102     -0.003784     -0.042488
    22   Atom        1.108928      0.941786      0.681929
    23   Atom        0.205974      0.034488     -0.090093
    24   Atom       -0.012886     -0.000237     -0.005274
 --------------------------------------------------------


 ---------------------------------------------------------------------------------
              Anisotropic Spin Dipole Couplings in Principal Axis System
 ---------------------------------------------------------------------------------

       Atom             a.u.   MegaHertz   Gauss  10(-4) cm-1        Axes

              Baa    -0.0108    -1.445    -0.516    -0.482  0.7168  0.4325  0.5469
     1 C(13)  Bbb    -0.0090    -1.211    -0.432    -0.404 -0.5875 -0.0478  0.8078
              Bcc     0.0198     2.656     0.948     0.886 -0.3756  0.9003 -0.2199
 
              Baa    -0.0037    -0.502    -0.179    -0.167 -0.0727  0.0210  0.9971
     2 C(13)  Bbb    -0.0014    -0.184    -0.066    -0.061  0.8259  0.5617  0.0484
              Bcc     0.0051     0.686     0.245     0.229 -0.5590  0.8271 -0.0582
 
              Baa    -0.0233    -3.133    -1.118    -1.045 -0.0611  0.0422  0.9972
     3 C(13)  Bbb    -0.0134    -1.792    -0.639    -0.598  0.3423  0.9394 -0.0188
              Bcc     0.0367     4.925     1.757     1.643  0.9376 -0.3402  0.0719
 
              Baa    -0.0080    -4.252    -1.517    -1.418 -0.0906  0.0611  0.9940
     4 H(1)   Bbb    -0.0042    -2.220    -0.792    -0.741  0.9665  0.2460  0.0730
              Bcc     0.0121     6.473     2.310     2.159 -0.2400  0.9674 -0.0813
 
              Baa    -0.0022    -0.293    -0.104    -0.098  0.6411  0.7200 -0.2655
     5 C(13)  Bbb     0.0000     0.003     0.001     0.001  0.2661  0.1160  0.9570
              Bcc     0.0022     0.289     0.103     0.097  0.7199 -0.6842 -0.1172
 
              Baa    -0.0014    -0.736    -0.263    -0.246 -0.1526 -0.0270  0.9879
     6 H(1)   Bbb    -0.0011    -0.586    -0.209    -0.195  0.8559  0.4962  0.1458
              Bcc     0.0025     1.322     0.472     0.441 -0.4942  0.8678 -0.0526
 
              Baa    -0.0052    -0.703    -0.251    -0.235  0.0030  0.0142  0.9999
     7 C(13)  Bbb    -0.0034    -0.456    -0.163    -0.152  0.4780  0.8783 -0.0139
              Bcc     0.0086     1.160     0.414     0.387  0.8784 -0.4780  0.0042
 
              Baa    -0.0008    -0.447    -0.160    -0.149 -0.1688 -0.1487  0.9744
     8 H(1)   Bbb    -0.0008    -0.427    -0.152    -0.142  0.6256  0.7477  0.2224
              Bcc     0.0016     0.874     0.312     0.291  0.7616 -0.6472  0.0332
 
              Baa    -0.0178    -2.392    -0.854    -0.798  0.0098  0.6715  0.7409
     9 C(13)  Bbb    -0.0174    -2.339    -0.835    -0.780 -0.1221  0.7362 -0.6656
              Bcc     0.0353     4.731     1.688     1.578  0.9925  0.0839 -0.0892
 
              Baa    -0.0070    -0.945    -0.337    -0.315 -0.0368  0.0397  0.9985
    10 C(13)  Bbb    -0.0018    -0.239    -0.085    -0.080  0.0512  0.9980 -0.0378
              Bcc     0.0088     1.185     0.423     0.395  0.9980 -0.0497  0.0387
 
              Baa    -0.0016    -0.208    -0.074    -0.069 -0.3033  0.9153 -0.2649
    11 C(13)  Bbb    -0.0013    -0.170    -0.061    -0.057 -0.0382  0.2661  0.9632
              Bcc     0.0028     0.378     0.135     0.126  0.9521  0.3022 -0.0457
 
              Baa    -0.0062    -3.294    -1.175    -1.099  0.0042 -0.0073  1.0000
    12 H(1)   Bbb    -0.0029    -1.547    -0.552    -0.516 -0.5532  0.8330  0.0084
              Bcc     0.0091     4.841     1.728     1.615  0.8330  0.5532  0.0006
 
              Baa    -0.0018    -0.238    -0.085    -0.080  0.0370  0.9748  0.2198
    13 C(13)  Bbb    -0.0014    -0.192    -0.069    -0.064  0.0946 -0.2224  0.9704
              Bcc     0.0032     0.431     0.154     0.144  0.9948 -0.0151 -0.1005
 
              Baa    -0.0019    -0.258    -0.092    -0.086 -0.0061  0.0222  0.9997
    14 C(13)  Bbb    -0.0003    -0.043    -0.015    -0.014 -0.0492  0.9985 -0.0225
              Bcc     0.0022     0.301     0.108     0.101  0.9988  0.0493  0.0050
 
              Baa    -0.0007    -0.365    -0.130    -0.122  0.0268  0.1677  0.9855
    15 H(1)   Bbb    -0.0006    -0.303    -0.108    -0.101  0.3088  0.9362 -0.1677
              Bcc     0.0013     0.668     0.238     0.223  0.9508 -0.3088  0.0267
 
              Baa    -0.0009    -0.489    -0.175    -0.163 -0.1483  0.2442  0.9583
    16 H(1)   Bbb    -0.0009    -0.454    -0.162    -0.151 -0.4688  0.8358 -0.2856
              Bcc     0.0018     0.943     0.337     0.315  0.8707  0.4916  0.0094
 
              Baa    -0.0005    -0.275    -0.098    -0.092 -0.0173 -0.0260  0.9995
    17 H(1)   Bbb    -0.0004    -0.210    -0.075    -0.070 -0.1237  0.9920  0.0237
              Bcc     0.0009     0.485     0.173     0.162  0.9922  0.1232  0.0204
 
              Baa    -0.3687   -49.473   -17.653   -16.502 -0.4916  0.8658  0.0931
    18 C(13)  Bbb    -0.3633   -48.757   -17.398   -16.264 -0.0443 -0.1316  0.9903
              Bcc     0.7320    98.230    35.051    32.766  0.8697  0.4827  0.1031
 
              Baa    -0.2082  -111.078   -39.635   -37.052 -0.2455  0.3623  0.8992
    19 H(1)   Bbb    -0.2035  -108.579   -38.744   -36.218 -0.1777  0.8950 -0.4091
              Bcc     0.4117   219.657    78.379    73.270  0.9530  0.2602  0.1554
 
              Baa    -0.0439   -23.418    -8.356    -7.811 -0.3675  0.7830 -0.5017
    20 H(1)   Bbb    -0.0095    -5.094    -1.818    -1.699  0.9237  0.2444 -0.2951
              Bcc     0.0534    28.512    10.174     9.511  0.1085  0.5719  0.8131
 
[...]
 12,0.00009381,0.00003190,-0.00003057,-0.00081840,0.00020698,0.00036222
 ,0.00003474,0.00001396,-0.00002898,0.00723343,0.00453033,-0.00191222,0
 .00171376,0.00195145,-0.01044175,-0.06438844,0.02350102,-0.07871890,-0
 .00446382,-0.00202833,0.00114235,0.00506864,0.00158373,-0.00028561,0.0
 0406679,-0.00036122,0.00214535,0.00008582,0.00001249,0.00016684,0.0549
 5715,-0.00000404,-0.00040956,0.00034583,0.00009248,-0.00032297,-0.0001
 7033,0.00014127,0.00071337,0.00118652,0.00004064,-0.00003345,0.0001448
 3,-0.00044845,0.00031127,-0.00020875,0.00003067,0.00001724,-0.00000040
 ,0.00015609,-0.00116130,0.00004248,0.00003330,0.00000328,0.00007416,0.
 00425457,-0.00439683,-0.00024133,0.00863560,-0.00161181,0.02836360,0.0
 2305138,-0.06985160,0.05115126,-0.00186153,0.00040279,0.00003251,0.001
 76246,-0.00256511,-0.00369894,-0.00676593,0.00903990,-0.02136679,-0.00
 038273,0.00024919,-0.00111732,-0.02786626,0.06921438,0.00007308,0.0003
 0442,0.00007421,0.00002191,-0.00011247,0.00003826,-0.00008495,-0.00008
 401,-0.00021571,0.00000254,0.00000972,-0.00002513,0.00010152,0.0001709
 3,-0.00017038,-0.00002846,0.00000279,-0.00001048,0.00048854,-0.0004374
 6,0.00060881,0.00000249,-0.00001669,0.00003768,-0.00156606,0.00010778,
 0.00209915,-0.00147388,-0.00052745,-0.00217784,-0.07960101,0.05193115,
 -0.30239079,0.00116542,0.00063036,0.00050221,-0.00013755,-0.00424430,-
 0.00113967,-0.00664359,0.00724138,-0.01518501,-0.00037064,0.00038123,-
 0.00086090,0.08732706,-0.05544830,0.31821044,0.00009693,-0.00003814,-0
 .00010873,-0.00062767,-0.00010343,-0.00003093,-0.00074701,-0.00024428,
 0.00032570,0.00009205,0.00003629,-0.00002851,0.00003875,0.00038148,0.0
 0015880,-0.00003475,0.00003597,-0.00000218,0.00779315,0.00203765,-0.00
 350019,0.00013265,0.00003566,-0.00005106,-0.00059028,-0.00039825,0.000
 09586,0.00507933,0.00120466,-0.00067075,0.00297318,0.00054539,-0.00085
 775,-0.00002902,-0.00000422,-0.00004697,0.00124754,0.00894615,-0.00155
 145,-0.07693803,0.09580111,-0.02560758,-0.00435631,-0.00173467,0.00124
 590,-0.00249738,-0.00087880,0.00078156,0.06834157,0.00000207,0.0000168
 7,-0.00009871,-0.00015725,0.00005669,0.00026577,-0.00018347,-0.0002113
 1,0.00013991,0.00003930,-0.00000441,-0.00000117,0.00012243,-0.00030917
 ,-0.00008184,0.00000191,-0.00002771,0.00000300,0.00222164,0.00252256,0
 .00000698,0.00004756,0.00002112,0.00000754,-0.00051400,0.00047133,-0.0
 0047422,0.00113899,-0.00084242,-0.00425491,0.00763812,-0.01438761,0.00
 773026,0.00032574,-0.00080534,0.00042989,0.00192311,-0.00173406,-0.000
 53428,0.09566463,-0.28474811,0.05371225,-0.00158987,0.00011286,0.00066
 401,-0.00109553,0.00043013,0.00010105,-0.10562768,0.29942942,-0.000034
 52,-0.00024714,-0.00033018,-0.00010002,0.00043904,-0.00043629,0.000380
 14,-0.00023170,0.00027810,-0.00002483,0.00000490,0.00001502,-0.0002361
 9,0.00115041,0.00062651,-0.00005318,0.00014576,-0.00002924,-0.00340703
 ,-0.00045226,-0.00487861,-0.00002999,-0.00004051,-0.00001942,-0.000149
 57,0.00003095,-0.00129000,-0.00076424,-0.00373972,-0.00280738,0.008475
 90,-0.02091163,0.00979540,0.00037957,-0.00105259,0.00028655,-0.0109758
 8,0.02856891,-0.00174973,-0.02536300,0.05296771,-0.07127762,0.00146210
 ,-0.00001687,0.00065939,0.00051396,0.00095471,0.00067203,0.02990514,-0
 .05763857,0.07039731,0.01411828,-0.00807542,0.00967588,0.00650593,-0.0
 0650919,-0.00665456,-0.06264146,-0.01034124,-0.04239273,-0.00295527,-0
 .00149338,0.00081063,-0.00180734,0.00328776,0.00091839,-0.00003952,-0.
 00076485,-0.00073979,0.00145914,0.00184277,-0.00673678,-0.00054110,-0.
 00029951,0.00019598,-0.00160864,0.02064419,0.00225772,0.00030110,-0.00
 280597,0.00528628,-0.00081584,0.00257685,0.00082004,0.00020817,0.00070
 581,-0.00065672,0.00070862,-0.00087455,0.00165091,-0.00048810,-0.00091
 871,-0.00193329,0.00012448,0.00013266,-0.00008569,0.00027337,0.0000476
 5,0.00001810,0.00005509,-0.00008297,-0.00005094,0.44625562,-0.00731149
 ,0.00202579,-0.02503889,-0.00076992,0.00960209,0.00536043,0.02323920,-
 0.17429668,-0.06891595,0.00001918,0.00049259,0.00167617,0.00090654,-0.
 00437309,-0.00092355,0.00007974,0.00054816,0.00048437,0.00387271,-0.00
 218720,0.00787154,-0.00013154,-0.00004444,-0.00005573,0.00840050,-0.03
 611142,-0.01511879,-0.00228379,0.00217134,-0.00378915,0.00082188,-0.00
 365000,-0.00194934,0.00054943,-0.00223189,-0.00020017,-0.00079999,0.00
 071670,-0.00269656,0.00035672,0.00058319,0.00255261,0.00020954,-0.0003
 0823,0.00005566,0.00003381,-0.00000397,0.00000376,-0.00001176,-0.00002
 793,0.00000230,-0.00431510,0.51095215,-0.00873713,-0.03148246,-0.05932
 237,-0.00574644,0.01532554,0.00146550,-0.00184075,-0.05307056,-0.12711
 877,0.00116819,-0.00169868,0.00033279,0.00156000,-0.00552700,-0.002143
 14,0.00015404,-0.00066152,-0.00060329,-0.00043335,0.00304124,0.0060894
 2,0.00015215,-0.00009522,0.00011045,0.00727108,-0.01493090,0.01845344,
 -0.00252754,0.00572811,-0.00634056,0.00164636,-0.00522456,-0.00133949,
 -0.00045354,0.00074960,-0.00019541,-0.00118517,0.00258224,-0.00157214,
 0.00036718,0.00153017,0.00381967,-0.00016987,0.00030357,-0.00005787,-0
 .00005111,0.00001359,-0.00010672,-0.00005169,0.00002169,0.00002783,0.0
 6573851,-0.02664219,0.49911412,-0.00802345,-0.00096636,-0.02197669,-0.
 00094386,0.00937114,0.00252956,-0.00997012,0.03635402,0.04825970,-0.00
 084781,-0.00031474,0.00003537,0.00065776,-0.00340153,-0.00168366,0.000
 12171,0.00025653,0.00014982,0.00196877,0.00049779,0.00573980,-0.000255
 03,-0.00005183,0.00005678,0.00503023,-0.01348897,0.00597381,-0.0023428
 4,0.00287312,-0.00443921,0.00109575,-0.00356336,-0.00113876,-0.0004754
 9,-0.00010608,-0.00007221,-0.00084294,0.00153072,-0.00167824,0.0003750
 8,0.00103854,0.00273231,0.00000106,0.00003146,-0.00002052,-0.00004996,
 -0.00003175,-0.00004640,-0.00004223,0.00001891,0.00002499,-0.05491364,
 -0.03810120,0.01466790,0.31123568,-0.00205453,0.00008388,-0.00347705,-
 0.00031154,0.00115598,0.00050661,0.01170974,0.00344286,-0.00134490,-0.
 00005357,-0.00004149,0.00016798,0.00008983,-0.00050883,-0.00052171,0.0
 0009249,0.00008173,0.00002156,0.00000418,-0.00012226,0.00123570,-0.000
 05329,-0.00000787,0.00002262,0.00036659,-0.00352667,0.00099280,-0.0002
 5676,0.00062100,-0.00095768,0.00018689,-0.00084377,-0.00021145,-0.0001
 9135,-0.00012742,-0.00004677,-0.00014303,0.00042002,-0.00039373,0.0001
 1197,0.00025515,0.00062183,-0.00001373,0.00000928,0.00000282,-0.000020
 30,0.00000832,-0.00001525,-0.00001391,0.00002213,0.00001382,-0.0042854
 9,0.01592200,-0.00060711,0.01963855,0.00125968,0.00208359,-0.00095177,
 0.00865459,-0.00014752,-0.00396877,-0.00095081,0.01330257,-0.01743662,
 -0.02822531,0.00078374,0.00044286,-0.00038898,-0.00017928,0.00125434,0
 .00067623,0.00004119,-0.00006814,-0.00011091,-0.00114303,-0.00027463,-
 0.00279040,0.00013715,0.00006963,-0.00003263,-0.00236227,0.00575542,-0
 .00221426,0.00129511,-0.00090540,0.00239688,-0.00039762,0.00145206,0.0
 0033786,-0.00013564,0.00020030,-0.00012186,0.00039304,-0.00069154,0.00
 067618,-0.00017369,-0.00035203,-0.00115204,-0.00000810,0.00000839,0.00
 000217,-0.00000637,0.00003949,0.00000963,0.00000533,-0.00003547,-0.000
 02702,0.04261579,0.01902239,0.02041998,-0.18037804,-0.02851499,0.03203
 944,-0.00243795,-0.00110468,-0.00276168,-0.00038847,0.00080129,0.00052
 535,0.00013948,0.01042026,0.00496564,0.00042065,-0.00018209,-0.0002812
 0,0.00006404,-0.00039170,-0.00064811,0.00003912,0.00004617,0.00001446,
 0.00019072,0.00039445,0.00076509,0.00002669,0.00003878,0.00001635,0.00
 306790,-0.00084091,0.00072837,-0.00039797,0.00061052,-0.00107623,0.000
 30951,-0.00049671,0.00007632,-0.00020979,-0.00002426,0.00040503,-0.000
 29270,0.00035414,-0.00011358,0.00002339,0.00023843,0.00047213,-0.00004
 137,0.00002647,0.00000533,0.00001252,0.00000390,-0.00002055,-0.0000194
 4,0.00002095,0.00003535,-0.02581951,0.01334653,-0.02322114,-0.01847069
 ,-0.01558472,0.01545906,0.03251723,0.00072784,0.00105149,0.00149414,0.
 00015888,0.00029467,-0.00035021,0.00156149,-0.01744684,0.01154958,-0.0
 0077719,0.00050623,-0.00089814,-0.00013031,0.00014107,-0.00010580,-0.0
 0002407,-0.00002166,-0.00000716,0.00078136,-0.00065706,0.00096577,-0.0
 0008272,0.00003322,-0.00003677,-0.00044511,-0.00149692,-0.00319653,-0.
 00029060,0.00038849,-0.00066837,0.00006506,-0.00017766,0.00012158,-0.0
 0005855,0.00015998,0.00003050,-0.00011025,-0.00006621,-0.00043603,0.00
 000121,0.00008990,0.00013445,0.00005651,-0.00009699,0.00001656,0.00000
 573,-0.00004285,0.00001490,0.00001161,-0.00000520,0.00001390,0.0236337
 2,-0.27714121,0.09784137,-0.00086460,-0.00586606,0.00359703,-0.0244117
 5,0.29614391,0.00136458,-0.00178623,0.00081907,-0.00019630,-0.00002100
 ,0.00020513,0.00225444,-0.02231637,0.00835273,0.00008764,0.00019361,-0
 .00034494,-0.00000908,-0.00010066,0.00019877,-0.00001575,0.00001594,0.
 00001426,0.00059387,-0.00084846,0.00019539,0.00004007,0.00005100,-0.00
 003341,-0.00099280,-0.00189364,-0.00341987,-0.00010673,0.00002791,-0.0
 0059082,-0.00001337,0.00017614,0.00036692,0.00011162,0.00010737,0.0004
 1684,0.00003750,-0.00014106,-0.00028075,-0.00008928,0.00002605,-0.0000
 7847,0.00006075,-0.00008924,0.00003168,0.00002416,-0.00001577,0.000000
 02,0.00000980,0.00002624,0.00002930,-0.02177504,0.10517039,-0.09286242
 ,0.00591454,0.00950483,-0.00682705,0.01603661,-0.10718833,0.09777785,0
 .00058625,0.00095494,-0.00311309,-0.00027339,0.00168422,0.00123677,0.0
 0512741,0.00548748,0.01207919,-0.00002551,0.00002484,0.00007069,0.0002
 6946,-0.00088093,-0.00023709,-0.00013663,0.00003968,0.00012811,-0.0001
 0095,-0.00007860,0.00045020,0.00005462,0.00002920,0.00001529,-0.000189
 88,-0.00196516,0.00041529,-0.00018902,0.00043834,-0.00121086,0.0000051
 2,-0.00006754,0.00041916,0.00069046,0.00085950,0.00019687,-0.00003380,
 0.00011437,-0.00003247,0.00002968,0.00020639,0.00010266,-0.00002086,-0
 .00000079,0.00000964,-0.00001075,-0.00000165,-0.00001532,0.00000897,0.
 00002998,0.00003384,-0.13020092,0.00062255,-0.15661130,-0.02667083,-0.
 00122297,-0.00563989,0.00052752,-0.00131956,0.00110864,0.14209540,0.00
 102363,-0.00383900,-0.00302989,-0.00006857,0.00143064,-0.00077356,-0.0
 1584419,0.00757567,-0.01448429,-0.00025758,0.00017767,-0.00026027,-0.0
 0003185,-0.00035411,-0.00019102,-0.00001217,-0.00026757,-0.00021672,0.
 00024616,0.00023079,0.00009312,-0.00001786,-0.00001332,0.00005182,0.00
 015856,0.00025817,0.00085289,-0.00004754,-0.00092180,-0.00069089,0.000
 17913,-0.00016104,0.00033916,0.00039945,-0.00378788,0.00120178,-0.0000
 8949,0.00032415,0.00003621,-0.00008687,0.00006724,0.00026317,0.0000076
 0,0.00002471,-0.00000472,0.00004717,-0.00000521,-0.00002108,-0.0000013
 4,0.00004606,0.00004900,0.00783307,-0.05365380,-0.00215789,-0.00543270
 ,-0.00042932,0.00147134,0.01702105,0.00281579,0.01989601,-0.00713349,0
 .04980494,-0.00023275,-0.00378658,0.00052498,0.00049406,-0.00011187,-0
 .00117520,-0.01286776,-0.00126184,-0.01614458,-0.00019648,-0.00018947,
 0.00032627,-0.00012844,0.00031603,0.00017787,0.00011300,-0.00020962,-0
 .00023773,0.00013130,-0.00020882,-0.00056030,-0.00004277,-0.00007411,0
 .00002983,0.00026263,0.00250677,-0.00095160,-0.00007070,0.00033924,0.0
 0005190,0.00011876,0.00032024,0.00039302,-0.00033994,0.00220670,0.0010
 5925,-0.00001653,-0.00000511,0.00005770,-0.00001154,0.00000349,-0.0001
 1440,0.00000111,-0.00001750,0.00000295,-0.00000441,-0.00000159,0.00000
 275,-0.00001857,0.00001634,0.00003324,-0.14464032,0.00274202,-0.213165
 57,0.01163656,0.00099737,-0.00297377,-0.00678433,-0.00127120,-0.006048
 28,0.15459160,-0.00095144,0.23486350,0.00402904,0.00010180,0.00832632,
 0.00010367,-0.00259488,-0.00157613,0.00183695,-0.01853738,-0.01858586,
 0.00016110,-0.00002339,0.00024985,0.00001182,0.00150275,0.00206798,-0.
 00005163,-0.00013010,0.00001015,-0.00046453,-0.00056496,-0.00203856,0.
 00004181,-0.00004130,-0.00006711,-0.00230419,0.00564036,-0.00223975,0.
 00092898,-0.00077376,0.00225520,-0.00055175,0.00144005,-0.00003940,-0.
 00016079,0.00014764,-0.00027538,0.00038685,-0.00087425,0.00042010,-0.0
 0015572,-0.00056134,-0.00123905,0.00002619,-0.00003610,0.00003313,0.00
 000611,0.00003694,0.00000580,-0.00001341,0.00001159,-0.00005500,-0.186
 47892,0.00481650,0.10314522,-0.20309843,0.02474117,0.10662660,0.012023
 73,0.00133114,-0.00500815,0.00711547,0.00158766,-0.00090639,0.40489286
 ,0.00153596,-0.00082216,0.00437547,0.00011026,-0.00227631,0.00024999,0
 .00361836,-0.00551881,-0.00997903,0.00048537,0.00016128,-0.00008998,0.
 00010461,0.00002862,0.00001480,-0.00005173,-0.00009094,-0.00016053,-0.
 00092177,-0.00005968,-0.00246510,0.00015295,0.00003636,0.00002600,-0.0
 0138960,0.00333187,-0.00246001,0.00144669,-0.00189809,0.00132621,-0.00
 037938,0.00165724,0.00085763,0.00054729,0.00000437,0.00014904,0.000320
 58,-0.00061336,0.00093481,-0.00013456,-0.00040392,-0.00118612,-0.00000
 959,-0.00002260,-0.00000639,0.00003208,-0.00002673,0.00004116,0.000033
 49,-0.00003714,0.00001834,-0.03769362,0.01076428,0.02505320,0.02465135
 ,0.01760557,-0.00254595,0.00159831,0.00111723,-0.00097530,0.00440092,0
 .00111665,-0.00184139,-0.00210490,0.29166159,-0.00049774,0.00070429,-0
 .00181268,-0.00002134,0.00089047,0.00054889,0.00192691,0.00721169,0.00
 709440,-0.00036011,-0.00011661,0.00001983,-0.00000839,-0.00029370,-0.0
 0056414,-0.00003570,0.00004047,0.00006492,0.00009501,0.00022046,0.0008
 5743,-0.00001650,0.00000192,0.00002259,0.00061158,-0.00118984,0.000860
 21,-0.00055014,0.00014298,-0.00085601,0.00015045,-0.00051768,0.0000297
 4,0.00014628,-0.00011914,0.00006391,-0.00013707,0.00034826,-0.00009151
 ,0.00012831,0.00011662,0.00041670,-0.00001844,0.00000779,-0.00000193,0
 .00000952,-0.00004376,0.00001340,0.00000384,0.00001058,0.00002379,0.10
 045634,-0.00096061,-0.04623521,0.10419235,-0.00268926,-0.00646439,-0.0
 0623160,-0.00140168,0.00245810,-0.00457971,-0.00120417,0.00409658,-0.1
 9282386,-0.08118652,0.08966496,0.00024127,-0.00009335,0.00074853,0.000
 19897,-0.00035108,-0.00001890,0.00014722,-0.00078313,-0.00293304,-0.00
 000616,-0.00004662,0.00005338,0.00000159,0.00011452,0.00005641,-0.0000
 1491,-0.00001319,0.00005012,-0.00014824,-0.00063695,-0.00068086,0.0000
 0617,0.00002452,0.00004926,-0.00044735,0.00069233,0.00018238,-0.000822
 54,0.00010357,-0.00045940,-0.00009391,-0.00041127,0.00034328,-0.001286
 76,0.00066789,0.00021329,-0.00015646,0.00043538,-0.00014985,0.00019681
 ,0.00029564,0.00036218,-0.00002606,0.00003157,0.00002478,-0.00008780,-
 0.00000368,-0.00002892,0.00001091,0.00008100,0.00003537,-0.00107815,-0
 .00255289,0.00666691,0.00760693,-0.03004974,0.00958319,-0.00136354,0.0
 0003428,0.00052100,0.00150973,0.00055408,-0.00122358,-0.04107626,-0.00
 273030,-0.00860743,0.13008269,0.00024113,0.00075649,-0.00048885,-0.000
 06836,0.00097119,-0.00064956,-0.00073857,0.00045654,0.00145315,-0.0004
 1032,-0.00007979,-0.00003808,-0.00001747,0.00051640,0.00068001,-0.0000
 0453,0.00005098,0.00014671,0.00041945,0.00012239,0.00122476,-0.0001108
 6,-0.00002093,-0.00003938,0.00091569,-0.00029976,0.00137349,-0.0003586
 5,0.00091631,-0.00068670,0.00029337,-0.00015485,-0.00053858,0.00052507
 ,-0.00066455,0.00022559,-0.00009573,0.00002246,-0.00049256,-0.00010286
 ,0.00029697,0.00031149,-0.00000752,0.00002023,0.00001323,-0.00009138,0
 .00002715,-0.00004328,-0.00003970,0.00002285,-0.00002167,0.01887321,-0
 .00001870,-0.01071645,-0.03122784,-0.02779485,0.02401975,-0.00212105,0
 .00026249,0.00035175,-0.00222801,-0.00036189,0.00045752,0.00285840,-0.
 27194531,0.09981737,0.12475820,0.44471037,-0.00019575,-0.00001894,-0.0
 0081938,-0.00008888,0.00016694,0.00021553,-0.00011314,0.00131400,0.002
 20192,0.00002326,-0.00000104,0.00001538,-0.00008206,-0.00019765,-0.000
 29270,0.00000458,-0.00000255,-0.00004446,0.00018397,0.00049411,0.00058
 313,0.00001669,-0.00001098,-0.00002004,0.00057708,-0.00059479,-0.00026
 254,0.00007258,-0.00029487,-0.00047027,0.00003632,0.00019673,0.0000340
 7,-0.00032711,0.00028267,0.00005506,0.00005813,-0.00008123,0.00015185,
 -0.00000555,-0.00017588,-0.00012320,0.00000611,-0.00003213,-0.00000910
 ,0.00002230,-0.00004591,0.00003454,0.00000630,-0.00001980,0.00000691,-
 0.00285295,0.00030956,-0.00091077,0.00681956,0.02142115,-0.01278878,0.
 00129079,-0.00014401,-0.00028388,0.00033045,-0.00031074,0.00002739,-0.
 01023595,0.04612977,-0.06490509,0.17181369,0.08556672,0.41013697,0.000
 23015,0.00009777,0.00039077,-0.00008284,-0.00013505,-0.00000501,-0.000
 15842,-0.00059630,0.00058494,0.00001390,0.00007943,-0.00004351,-0.0000
 6507,-0.00001716,-0.00004515,0.00001815,0.00000073,-0.00007531,0.00003
 051,0.00038081,0.00032757,0.00002552,-0.00001680,-0.00004536,-0.000414
 56,0.00036060,0.00016384,-0.00024213,-0.00000874,-0.00037309,-0.000001
 11,0.00033712,0.00003172,-0.00018191,0.00002980,-0.00003573,0.00000759
 ,-0.00008775,0.00006957,-0.00006393,-0.00004505,-0.00010827,0.00002164
 ,-0.00003739,-0.00002437,0.00000616,-0.00004214,0.00002929,0.00002543,
 -0.00003715,-0.00000197,-0.00062139,-0.00099717,-0.00150852,-0.0011456
 4,-0.00268650,-0.00175490,0.00007895,0.00014587,0.00004128,-0.00016752
 ,-0.00003390,0.00013549,0.00279106,0.00637724,0.00616744,-0.09339414,-
 0.11126168,-0.16736041,0.09328962,0.00020593,0.00003182,0.00018662,0.0
 0008223,-0.00007570,0.00013342,-0.00058504,0.00021112,-0.00004618,-0.0
 0002306,-0.00007078,0.00007028,-0.00010310,-0.00009378,-0.00017088,-0.
 00000343,-0.00001414,-0.00001858,-0.00005625,-0.00001475,-0.00023504,0
 .00003156,-0.00000484,-0.00000388,-0.00006044,0.00017907,-0.00038046,0
 .00004605,0.00002855,0.00035098,-0.00005231,-0.00010570,0.00010906,-0.
 00007388,0.00008596,-0.00001959,0.00000658,-0.00009175,0.00007298,-0.0
 0001264,-0.00015236,-0.00003549,0.00001999,-0.00000432,-0.00001378,0.0
 0003805,0.00001437,0.00000968,0.00002673,-0.00001161,-0.00000710,-0.00
 111769,0.00027027,0.00062422,0.00128885,-0.00161906,-0.00158768,0.0002
 3663,0.00001417,-0.00017119,0.00000626,-0.00007755,0.00002482,-0.01797
 365,-0.04377001,-0.01978991,-0.09012080,-0.14781220,-0.15395111,0.1081
 9343,0.19308321,-0.00060875,-0.00002541,0.00015037,-0.00004222,-0.0003
 6899,-0.00017734,-0.00000582,-0.00007903,-0.00037465,0.00013127,0.0000
 8661,-0.00003777,0.00002719,-0.00003478,-0.00013191,0.00001777,0.00000
 621,-0.00002139,-0.00006300,-0.00005790,-0.00018896,0.00001009,0.00001
 507,0.00000485,0.00024828,-0.00034938,-0.00020995,0.00015115,-0.000223
 72,0.00024354,-0.00000921,0.00020930,-0.00001188,0.00002777,-0.0000086
 9,-0.00002186,0.00002852,-0.00015798,0.00007985,-0.00003008,0.00004515
 ,-0.00013421,-0.00000017,0.00001038,0.00000236,-0.00002784,0.00001021,
 -0.00002049,-0.00001186,0.00000345,-0.00000588,-0.00192577,0.00103974,
 0.00214054,0.00270066,0.00327081,-0.00014473,0.00034252,-0.00007554,-0
 .00009614,0.00025134,0.00004218,-0.00027579,0.01195025,0.02371991,0.01
 469552,-0.17660180,-0.20192639,-0.33253254,0.16343972,0.17484881,0.317
 06844\\-0.00000613,0.00001955,0.00010177,0.00003569,-0.00007311,-0.000
 02378,0.00003957,-0.00002287,-0.00004729,-0.00000624,0.00000466,0.0000
 1444,-0.00002266,0.00006452,-0.00002784,-0.00000339,0.00001372,0.00001
 194,-0.00001296,-0.00001091,-0.00000137,-0.00000276,0.00000838,-0.0000
 0144,-0.00000146,0.00004401,0.00001756,0.00005552,0.00001468,-0.000004
 96,-0.00001765,0.00004222,-0.00001522,-0.00005255,-0.00004249,-0.00000
 443,0.00002591,-0.00001422,-0.00001379,0.00000771,-0.00001298,-0.00003
 774,0.00000339,0.00001823,-0.00001194,0.00001440,-0.00000059,0.0000042
 1,0.00000036,0.00000615,-0.00001866,-0.13116600,-0.01055989,0.06398884
 ,0.00688782,0.00092436,-0.00263902,-0.00000626,-0.00000708,0.00003175,
 -0.00000584,-0.00000685,0.00001074,0.12421424,0.00964206,-0.06135079,-
 0.00000204,-0.00006971,-0.00001939,0.00002133,0.00001815,0.00003640\\\
 @


 A SUCCESSFUL PURSUIT OF SCIENCE MAKES A MAN THE
 BENEFACTOR OF ALL MANKIND OF EVERY AGE.
   --  JOSEPH PRIESTLEY, "EXPERIMENTS AND
 OBSERVATIONS ON DIFFERENT KINDS OF AIR", 1774
 Job cpu time:       0 days  9 hours  6 minutes 15.1 seconds.
 Elapsed time:       0 days  9 hours  7 minutes 34.7 seconds.
 File lengths (MBytes):  RWF=   1952 Int=      0 D2E=      0 Chk=     64 Scr=     32
 Normal termination of Gaussian 16 at Mon Jan 14 21:01:50 2019.
