 Entering Gaussian System, Link 0=g16
 Input=rxn927.com
 Output=rxn927.log
