 Entering Gaussian System, Link 0=g16
 Input=rxn908.com
 Output=rxn908.log
 Initial command:
 /shared/centos7/gaussian/g16/l1.exe "/scratch/dinius.ab/QMscratch/Gau-46684.inp" -scrdir="/scratch/dinius.ab/QMscratch/"
 Entering Link 1 = /shared/centos7/gaussian/g16/l1.exe PID=     46685.
  
 Copyright (c) 1988,1990,1992,1993,1995,1998,2003,2009,2016,
            Gaussian, Inc.  All Rights Reserved.
  
 This is part of the Gaussian(R) 16 program.  It is based on
 the Gaussian(R) 09 system (copyright 2009, Gaussian, Inc.),
 the Gaussian(R) 03 system (copyright 2003, Gaussian, Inc.),
 the Gaussian(R) 98 system (copyright 1998, Gaussian, Inc.),
 the Gaussian(R) 94 system (copyright 1995, Gaussian, Inc.),
 the Gaussian 92(TM) system (copyright 1992, Gaussian, Inc.),
 the Gaussian 90(TM) system (copyright 1990, Gaussian, Inc.),
 the Gaussian 88(TM) system (copyright 1988, Gaussian, Inc.),
 the Gaussian 86(TM) system (copyright 1986, Carnegie Mellon
 University), and the Gaussian 82(TM) system (copyright 1983,
 Carnegie Mellon University). Gaussian is a federally registered
 trademark of Gaussian, Inc.
  
 This software contains proprietary and confidential information,
 including trade secrets, belonging to Gaussian, Inc.
  
 This software is provided under written license and may be
 used, copied, transmitted, or stored only in accord with that
 written license.
  
 The following legend is applicable only to US Government
 contracts under FAR:
  
                    RESTRICTED RIGHTS LEGEND
  
 Use, reproduction and disclosure by the US Government is
 subject to restrictions as set forth in subparagraphs (a)
 and (c) of the Commercial Computer Software - Restricted
 Rights clause in FAR 52.227-19.
  
 Gaussian, Inc.
 340 Quinnipiac St., Bldg. 40, Wallingford CT 06492
  
  
 ---------------------------------------------------------------
 Warning -- This program may not be used in any manner that
 competes with the business of Gaussian, Inc. or will provide
 assistance to any competitor of Gaussian, Inc.  The licensee
 of this program is prohibited from giving any competitor of
 Gaussian, Inc. access to this program.  By using this program,
 the user acknowledges that Gaussian, Inc. is engaged in the
 business of creating and licensing software in the field of
 computational chemistry and represents and warrants to the
 licensee that it is not a competitor of Gaussian, Inc. and that
 it will not use this program in any manner prohibited above.
 ---------------------------------------------------------------
  

 Cite this work as:
 Gaussian 16, Revision A.03,
 M. J. Frisch, G. W. Trucks, H. B. Schlegel, G. E. Scuseria, 
 M. A. Robb, J. R. Cheeseman, G. Scalmani, V. Barone, 
 G. A. Petersson, H. Nakatsuji, X. Li, M. Caricato, A. V. Marenich, 
 J. Bloino, B. G. Janesko, R. Gomperts, B. Mennucci, H. P. Hratchian, 
 J. V. Ortiz, A. F. Izmaylov, J. L. Sonnenberg, D. Williams-Young, 
 F. Ding, F. Lipparini, F. Egidi, J. Goings, B. Peng, A. Petrone, 
 T. Henderson, D. Ranasinghe, V. G. Zakrzewski, J. Gao, N. Rega, 
 G. Zheng, W. Liang, M. Hada, M. Ehara, K. Toyota, R. Fukuda, 
 J. Hasegawa, M. Ishida, T. Nakajima, Y. Honda, O. Kitao, H. Nakai, 
 T. Vreven, K. Throssell, J. A. Montgomery, Jr., J. E. Peralta, 
 F. Ogliaro, M. J. Bearpark, J. J. Heyd, E. N. Brothers, K. N. Kudin, 
 V. N. Staroverov, T. A. Keith, R. Kobayashi, J. Normand, 
 K. Raghavachari, A. P. Rendell, J. C. Burant, S. S. Iyengar, 
 J. Tomasi, M. Cossi, J. M. Millam, M. Klene, C. Adamo, R. Cammi, 
 J. W. Ochterski, R. L. Martin, K. Morokuma, O. Farkas, 
 J. B. Foresman, and D. J. Fox, Gaussian, Inc., Wallingford CT, 2016.
 
 ******************************************
 Gaussian 16:  EM64L-G16RevA.03 25-Dec-2016
                 6-Nov-2018 
 ******************************************
 ----------------------------------------------------------------------
 #m062x/6-311+g(2df,2p) Opt=(ModRedun,Loose,maxcycle=1000) Int(Grid=SG1
 ) freq
 ----------------------------------------------------------------------
 1/6=1000,7=-1,18=120,19=15,26=2,38=1/1,3;
 2/9=110,12=2,17=6,18=5,40=1/2;
 3/5=4,6=6,7=214,11=2,25=1,30=1,71=1,74=-55,75=1/1,2,3;
 4//1;
 5/5=2,38=5/2;
 6/7=2,8=2,9=2,10=2,28=1/1;
 7//1,2,3,16;
 1/6=1000,7=-1,18=20,19=15,26=2/3(2);
 2/9=110/2;
 99//99;
 2/9=110/2;
 3/5=4,6=6,7=214,11=2,25=1,30=1,71=1,74=-55,75=1/1,2,3;
 4/5=5,16=3,69=1/1;
 5/5=2,38=5/2;
 7//1,2,3,16;
 1/6=1000,7=-1,18=20,19=15,26=2/3(-5);
 2/9=110/2;
 6/7=2,8=2,9=2,10=2,19=2,28=1/1;
 99/9=1/99;
 -----
 Title
 -----
 Symbolic Z-matrix:
 Charge =  0 Multiplicity = 2
 C                    -8.26712  -0.03599  -0.52368 
 C                    -7.2683    0.93928  -0.53584 
 C                    -7.93923  -1.35397  -0.19944 
 C                    -6.62398  -1.69613   0.10847 
 H                    -8.70838  -2.12265  -0.18457 
 C                    -5.94949   0.60204  -0.22769 
 H                    -7.52095   1.96743  -0.78766 
 C                    -5.62543  -0.72186   0.09594 
 H                    -6.38208  -2.72648   0.35884 
 C                    -4.9514    1.57806  -0.24006 
 C                    -3.63611   1.23616   0.06906 
 H                    -5.19373   2.60839  -0.49038 
 C                    -3.31399  -0.08083   0.3909 
 H                    -2.86052   1.99803   0.05891 
 C                    -4.30642  -1.05923   0.4045 
 H                    -4.04621  -2.08464   0.65678 
 H                    -2.28731  -0.34551   0.63164 
 C                    -9.70011   0.34428  -0.8574 
 H                    -9.74465   0.90296  -1.79786 
 H                    -10.11774   0.96728  -0.06253 
 H                    -10.3295  -0.54316  -0.95896 
 O                    -9.98958   1.57969  -2.63349 
 O                    -10.52323   2.59507  -3.55334 
 H                    -11.21787   2.06625  -3.98706 
 
 The following ModRedundant input section has been read:
 

 GradGradGradGradGradGradGradGradGradGradGradGradGradGradGradGradGradGrad
 Berny optimization.
 Initialization pass.
                           ----------------------------
                           !    Initial Parameters    !
                           ! (Angstroms and Degrees)  !
 --------------------------                            --------------------------
 ! Name  Definition              Value          Derivative Info.                !
 --------------------------------------------------------------------------------
 ! R1    R(1,2)                  1.396          estimate D2E/DX2                !
 ! R2    R(1,3)                  1.3963         estimate D2E/DX2                !
 ! R3    R(1,18)                 1.5197         estimate D2E/DX2                !
 ! R4    R(2,6)                  1.3957         estimate D2E/DX2                !
 ! R5    R(2,7)                  1.0883         estimate D2E/DX2                !
 ! R6    R(3,4)                  1.3935         estimate D2E/DX2                !
 ! R7    R(3,5)                  1.0875         estimate D2E/DX2                !
 ! R8    R(4,8)                  1.3952         estimate D2E/DX2                !
 ! R9    R(4,9)                  1.0876         estimate D2E/DX2                !
 ! R10   R(6,8)                  1.4009         estimate D2E/DX2                !
 ! R11   R(6,10)                 1.396          estimate D2E/DX2                !
 ! R12   R(8,15)                 1.396          estimate D2E/DX2                !
 ! R13   R(10,11)                1.3937         estimate D2E/DX2                !
 ! R14   R(10,12)                1.0876         estimate D2E/DX2                !
 ! R15   R(11,13)                1.3935         estimate D2E/DX2                !
 ! R16   R(11,14)                1.0872         estimate D2E/DX2                !
 ! R17   R(13,15)                1.3937         estimate D2E/DX2                !
 ! R18   R(13,17)                1.0872         estimate D2E/DX2                !
 ! R19   R(15,16)                1.0876         estimate D2E/DX2                !
 ! R20   R(18,19)                1.0948         estimate D2E/DX2                !
 ! R21   R(18,20)                1.0929         estimate D2E/DX2                !
 ! R22   R(18,21)                1.0927         estimate D2E/DX2                !
 ! R23   R(19,22)                1.1028         estimate D2E/DX2                !
 ! R24   R(22,23)                1.4703         estimate D2E/DX2                !
 ! R25   R(23,24)                0.9748         estimate D2E/DX2                !
 ! A1    A(2,1,3)              119.5652         estimate D2E/DX2                !
 ! A2    A(2,1,18)             119.863          estimate D2E/DX2                !
 ! A3    A(3,1,18)             120.5714         estimate D2E/DX2                !
 ! A4    A(1,2,6)              120.3532         estimate D2E/DX2                !
 ! A5    A(1,2,7)              119.7302         estimate D2E/DX2                !
 ! A6    A(6,2,7)              119.9166         estimate D2E/DX2                !
 ! A7    A(1,3,4)              120.3128         estimate D2E/DX2                !
 ! A8    A(1,3,5)              120.2824         estimate D2E/DX2                !
 ! A9    A(4,3,5)              119.4048         estimate D2E/DX2                !
 ! A10   A(3,4,8)              120.1387         estimate D2E/DX2                !
 ! A11   A(3,4,9)              119.5662         estimate D2E/DX2                !
 ! A12   A(8,4,9)              120.2951         estimate D2E/DX2                !
 ! A13   A(2,6,8)              119.8639         estimate D2E/DX2                !
 ! A14   A(2,6,10)             120.3095         estimate D2E/DX2                !
 ! A15   A(8,6,10)             119.8265         estimate D2E/DX2                !
 ! A16   A(4,8,6)              119.766          estimate D2E/DX2                !
 ! A17   A(4,8,15)             120.3649         estimate D2E/DX2                !
 ! A18   A(6,8,15)             119.8691         estimate D2E/DX2                !
 ! A19   A(6,10,11)            120.0819         estimate D2E/DX2                !
 ! A20   A(6,10,12)            120.334          estimate D2E/DX2                !
 ! A21   A(11,10,12)           119.5842         estimate D2E/DX2                !
 ! A22   A(10,11,13)           120.0813         estimate D2E/DX2                !
 ! A23   A(10,11,14)           119.95           estimate D2E/DX2                !
 ! A24   A(13,11,14)           119.9687         estimate D2E/DX2                !
 ! A25   A(11,13,15)           120.0748         estimate D2E/DX2                !
 ! A26   A(11,13,17)           119.9673         estimate D2E/DX2                !
 ! A27   A(15,13,17)           119.9579         estimate D2E/DX2                !
 ! A28   A(8,15,13)            120.0664         estimate D2E/DX2                !
 ! A29   A(8,15,16)            120.3439         estimate D2E/DX2                !
 ! A30   A(13,15,16)           119.5897         estimate D2E/DX2                !
 ! A31   A(1,18,19)            110.775          estimate D2E/DX2                !
 ! A32   A(1,18,20)            110.0761         estimate D2E/DX2                !
 ! A33   A(1,18,21)            111.12           estimate D2E/DX2                !
 ! A34   A(19,18,20)           108.5627         estimate D2E/DX2                !
 ! A35   A(19,18,21)           108.1298         estimate D2E/DX2                !
 ! A36   A(20,18,21)           108.0872         estimate D2E/DX2                !
 ! A37   A(22,23,24)            99.3432         estimate D2E/DX2                !
 ! A38   L(18,19,22,7,-1)      184.1875         estimate D2E/DX2                !
 ! A39   L(19,22,23,12,-1)     183.6836         estimate D2E/DX2                !
 ! A40   L(18,19,22,7,-2)      192.8942         estimate D2E/DX2                !
 ! A41   L(19,22,23,12,-2)     192.4749         estimate D2E/DX2                !
 ! D1    D(3,1,2,6)              0.0636         estimate D2E/DX2                !
 ! D2    D(3,1,2,7)           -179.9682         estimate D2E/DX2                !
 ! D3    D(18,1,2,6)           179.8376         estimate D2E/DX2                !
 ! D4    D(18,1,2,7)            -0.1942         estimate D2E/DX2                !
 ! D5    D(2,1,3,4)             -0.09           estimate D2E/DX2                !
 ! D6    D(2,1,3,5)            179.8842         estimate D2E/DX2                !
 ! D7    D(18,1,3,4)          -179.8624         estimate D2E/DX2                !
 ! D8    D(18,1,3,5)             0.1118         estimate D2E/DX2                !
 ! D9    D(2,1,18,19)           50.8896         estimate D2E/DX2                !
 ! D10   D(2,1,18,20)          -69.1867         estimate D2E/DX2                !
 ! D11   D(2,1,18,21)          171.109          estimate D2E/DX2                !
 ! D12   D(3,1,18,19)         -129.3386         estimate D2E/DX2                !
 ! D13   D(3,1,18,20)          110.585          estimate D2E/DX2                !
 ! D14   D(3,1,18,21)           -9.1192         estimate D2E/DX2                !
 ! D15   D(1,2,6,8)             -0.0138         estimate D2E/DX2                !
 ! D16   D(1,2,6,10)          -179.9967         estimate D2E/DX2                !
 ! D17   D(7,2,6,8)           -179.982          estimate D2E/DX2                !
 ! D18   D(7,2,6,10)             0.0352         estimate D2E/DX2                !
 ! D19   D(1,3,4,8)              0.0666         estimate D2E/DX2                !
 ! D20   D(1,3,4,9)           -179.9717         estimate D2E/DX2                !
 ! D21   D(5,3,4,8)           -179.9078         estimate D2E/DX2                !
 ! D22   D(5,3,4,9)              0.0539         estimate D2E/DX2                !
 ! D23   D(3,4,8,6)             -0.0163         estimate D2E/DX2                !
 ! D24   D(3,4,8,15)           179.9577         estimate D2E/DX2                !
 ! D25   D(9,4,8,6)           -179.9777         estimate D2E/DX2                !
 ! D26   D(9,4,8,15)            -0.0037         estimate D2E/DX2                !
 ! D27   D(2,6,8,4)             -0.01           estimate D2E/DX2                !
 ! D28   D(2,6,8,15)          -179.9841         estimate D2E/DX2                !
 ! D29   D(10,6,8,4)           179.9729         estimate D2E/DX2                !
 ! D30   D(10,6,8,15)           -0.0012         estimate D2E/DX2                !
 ! D31   D(2,6,10,11)          179.9687         estimate D2E/DX2                !
 ! D32   D(2,6,10,12)           -0.0324         estimate D2E/DX2                !
 ! D33   D(8,6,10,11)           -0.0142         estimate D2E/DX2                !
 ! D34   D(8,6,10,12)          179.9847         estimate D2E/DX2                !
 ! D35   D(4,8,15,13)         -179.9599         estimate D2E/DX2                !
 ! D36   D(4,8,15,16)            0.03           estimate D2E/DX2                !
 ! D37   D(6,8,15,13)            0.0141         estimate D2E/DX2                !
 ! D38   D(6,8,15,16)         -179.996          estimate D2E/DX2                !
 ! D39   D(6,10,11,13)           0.0167         estimate D2E/DX2                !
 ! D40   D(6,10,11,14)        -179.9913         estimate D2E/DX2                !
 ! D41   D(12,10,11,13)       -179.9822         estimate D2E/DX2                !
 ! D42   D(12,10,11,14)          0.0098         estimate D2E/DX2                !
 ! D43   D(10,11,13,15)         -0.0038         estimate D2E/DX2                !
 ! D44   D(10,11,13,17)        179.9934         estimate D2E/DX2                !
 ! D45   D(14,11,13,15)       -179.9958         estimate D2E/DX2                !
 ! D46   D(14,11,13,17)          0.0015         estimate D2E/DX2                !
 ! D47   D(11,13,15,8)          -0.0116         estimate D2E/DX2                !
 ! D48   D(11,13,15,16)        179.9984         estimate D2E/DX2                !
 ! D49   D(17,13,15,8)         179.9912         estimate D2E/DX2                !
 ! D50   D(17,13,15,16)          0.0011         estimate D2E/DX2                !
 ! D51   D(1,18,23,24)         131.2522         estimate D2E/DX2                !
 ! D52   D(20,18,23,24)       -110.5399         estimate D2E/DX2                !
 ! D53   D(21,18,23,24)          0.5768         estimate D2E/DX2                !
 --------------------------------------------------------------------------------
 Trust Radius=3.00D-01 FncErr=1.00D-05 GrdErr=1.00D-04 EigMax=2.50D+02 EigMin=1.00D-04
 Number of steps in this run=    144 maximum allowed number of steps=    144.
 GradGradGradGradGradGradGradGradGradGradGradGradGradGradGradGradGradGrad

                          Input orientation:                          
 ---------------------------------------------------------------------
 Center     Atomic      Atomic             Coordinates (Angstroms)
 Number     Number       Type             X           Y           Z
 ---------------------------------------------------------------------
      1          6           0       -8.267120   -0.035990   -0.523680
      2          6           0       -7.268300    0.939280   -0.535840
      3          6           0       -7.939230   -1.353970   -0.199440
      4          6           0       -6.623980   -1.696130    0.108470
      5          1           0       -8.708380   -2.122650   -0.184570
      6          6           0       -5.949490    0.602040   -0.227690
      7          1           0       -7.520950    1.967430   -0.787660
      8          6           0       -5.625430   -0.721860    0.095940
      9          1           0       -6.382080   -2.726480    0.358840
     10          6           0       -4.951400    1.578060   -0.240060
     11          6           0       -3.636110    1.236160    0.069060
     12          1           0       -5.193730    2.608390   -0.490380
     13          6           0       -3.313990   -0.080830    0.390900
     14          1           0       -2.860520    1.998030    0.058910
     15          6           0       -4.306420   -1.059230    0.404500
     16          1           0       -4.046210   -2.084640    0.656780
     17          1           0       -2.287310   -0.345510    0.631640
     18          6           0       -9.700110    0.344280   -0.857400
     19          1           0       -9.744650    0.902960   -1.797860
     20          1           0      -10.117740    0.967280   -0.062530
     21          1           0      -10.329500   -0.543160   -0.958960
     22          8           0       -9.989580    1.579690   -2.633490
     23          8           0      -10.523230    2.595070   -3.553340
     24          1           0      -11.217870    2.066250   -3.987060
 ---------------------------------------------------------------------
                    Distance matrix (angstroms):
                    1          2          3          4          5
     1  C    0.000000
     2  C    1.396045   0.000000
     3  C    1.396322   2.412946   0.000000
     4  C    2.419832   2.788489   1.393472   0.000000
     5  H    2.159596   3.401858   1.087512   2.147677   0.000000
     6  C    2.422004   1.395689   2.790312   2.418579   3.877792
     7  H    2.154100   1.088273   3.398920   3.876761   4.301449
     8  C    2.798727   2.420238   2.416709   1.395156   3.397864
     9  H    3.401610   3.876033   2.149460   1.087576   2.464057
    10  C    3.698594   2.421477   4.186356   3.693145   5.273825
    11  C    4.839004   3.694164   5.029683   4.186555   6.088830
    12  H    4.054575   2.663050   4.829359   4.575274   5.901612
    13  C    5.037059   4.187605   4.833449   3.693913   5.796519
    14  H    5.805857   4.572002   6.090644   5.273794   7.157985
    15  C    4.194721   3.694728   3.694445   2.421644   4.566740
    16  H    4.838030   4.576931   4.052480   2.663922   4.737631
    17  H    6.098253   5.274842   5.801024   4.572154   6.712270
    18  C    1.519682   2.524109   2.533311   3.815593   2.742621
    19  H    2.165238   2.779626   3.302760   4.486418   3.582021
    20  H    2.154995   2.888618   3.186354   4.396516   3.398361
    21  H    2.167972   3.427478   2.635844   4.024876   2.392174
    22  O    3.166795   3.495086   4.328383   5.438438   4.620174
    23  O    4.603406   4.737248   5.789699   6.857653   6.074469
    24  H    5.012119   5.364707   6.065760   7.213369   6.188970
                    6          7          8          9         10
     6  C    0.000000
     7  H    2.155770   0.000000
     8  C    1.400879   3.406762   0.000000
     9  H    3.407374   4.964300   2.158735   0.000000
    10  C    1.396049   2.655948   2.420092   4.575433   0.000000
    11  C    2.417001   4.044837   2.791408   4.829787   1.393714
    12  H    2.160005   2.432110   3.408915   5.531201   1.087641
    13  C    2.791921   4.825234   2.416749   4.051379   2.414775
    14  H    3.401862   4.736795   3.878647   5.900198   2.153494
    15  C    2.420570   4.573305   1.396000   2.662738   2.790476
    16  H    3.409254   5.529873   2.160011   2.440700   3.878023
    17  H    3.879157   5.895345   3.401714   4.744532   3.399611
    18  C    3.811840   2.718128   4.318394   4.681680   4.945055
    19  H    4.118158   2.664290   4.816066   5.397320   5.085051
    20  H    4.187480   2.875662   4.801995   5.270348   5.205347
    21  H    4.585927   3.770989   4.824212   4.699533   5.825835
    22  O    4.802708   3.106697   5.638504   6.364841   5.577792
    23  O    5.995933   4.129964   6.950375   7.795715   6.561816
    24  H    6.635707   4.890107   7.464572   8.077250   7.317581
                   11         12         13         14         15
    11  C    0.000000
    12  H    2.149923   0.000000
    13  C    1.393487   3.397349   0.000000
    14  H    1.087239   2.473485   2.153488   0.000000
    15  C    2.414674   3.878088   1.393689   3.399544   0.000000
    16  H    3.397250   4.965613   2.149905   4.293193   1.087575
    17  H    2.153471   4.293219   1.087236   2.479671   2.153554
    18  C    6.198861   5.056516   6.520851   7.096091   5.714379
    19  H    6.396145   5.032779   6.863811   7.213738   6.186673
    20  H    6.488539   5.207895   6.898924   7.331060   6.172220
    21  H    7.001734   6.043837   7.159138   7.954833   6.197003
    22  O    6.912913   5.352693   7.514504   7.632006   6.963590
    23  O    7.899420   6.146989   8.642373   8.492463   8.226003
    24  H    8.638532   6.986483   9.286970   9.285463   8.764848
                   16         17         18         19         20
    16  H    0.000000
    17  H    2.473648   0.000000
    18  C    6.337111   7.592276   0.000000
    19  H    6.886453   7.941855   1.094793   0.000000
    20  H    6.833381   7.970001   1.092869   1.776148   0.000000
    21  H    6.668321   8.200359   1.092701   1.771176   1.769140
    22  O    7.718603   8.584430   2.182780   1.102829   2.645998
    23  O    9.031976   9.694919   3.607170   2.559518   3.872967
    24  H    9.498834  10.339433   3.881179   2.883785   4.221369
                   21         22         23         24
    21  H    0.000000
    22  O    2.725085   0.000000
    23  O    4.076374   1.470341   0.000000
    24  H    4.094827   1.891451   0.974827   0.000000
 Stoichiometry    C11H11O2(2)
 Framework group  C1[X(C11H11O2)]
 Deg. of freedom    66
 Full point group                 C1      NOp   1
 Largest Abelian subgroup         C1      NOp   1
 Largest concise Abelian subgroup C1      NOp   1
                         Standard orientation:                         
 ---------------------------------------------------------------------
 Center     Atomic      Atomic             Coordinates (Angstroms)
 Number     Number       Type             X           Y           Z
 ---------------------------------------------------------------------
      1          6           0        0.971514    0.906862    0.346206
      2          6           0        0.335765   -0.330204    0.466341
      3          6           0        0.229046    2.029981   -0.024010
      4          6           0       -1.137252    1.918675   -0.274220
      5          1           0        0.712052    2.999681   -0.119244
      6          6           0       -1.032562   -0.447094    0.217413
      7          1           0        0.911746   -1.207205    0.755224
      8          6           0       -1.772856    0.682473   -0.154751
      9          1           0       -1.703720    2.801270   -0.562251
     10          6           0       -1.667399   -1.684599    0.337890
     11          6           0       -3.034162   -1.795780    0.088821
     12          1           0       -1.100578   -2.566996    0.626077
     13          6           0       -3.770333   -0.672044   -0.281418
     14          1           0       -3.526422   -2.760570    0.183427
     15          6           0       -3.141558    0.565745   -0.403436
     16          1           0       -3.723709    1.437601   -0.692897
     17          1           0       -4.836430   -0.760914   -0.475380
     18          6           0        2.461233    1.022134    0.623487
     19          1           0        3.020314    0.266568    0.062132
     20          1           0        2.656638    0.879060    1.689183
     21          1           0        2.839758    2.006728    0.338372
     22          8           0        3.741778   -0.483589   -0.302541
     23          8           0        4.834286   -1.444367   -0.515224
     24          1           0        5.493219   -0.848466   -0.916468
 ---------------------------------------------------------------------
 Rotational constants (GHZ):           1.6209479           0.3829810           0.3201453
 Standard basis: 6-311+G(2df,2p) (5D, 7F)
 There are   606 symmetry adapted cartesian basis functions of A   symmetry.
 There are   541 symmetry adapted basis functions of A   symmetry.
   541 basis functions,   797 primitive gaussians,   606 cartesian basis functions
    47 alpha electrons       46 beta electrons
       nuclear repulsion energy       710.3903653844 Hartrees.
 NAtoms=   24 NActive=   24 NUniq=   24 SFac= 1.00D+00 NAtFMM=   60 NAOKFM=F Big=F
 Integral buffers will be    131072 words long.
 Raffenetti 2 integral format.
 Two-electron integral symmetry is turned on.
 One-electron integrals computed using PRISM.
 NBasis=   541 RedAO= T EigKep=  1.42D-06  NBF=   541
 NBsUse=   538 1.00D-06 EigRej=  9.22D-07 NBFU=   538
 ExpMin= 4.38D-02 ExpMax= 8.59D+03 ExpMxC= 1.30D+03 IAcc=2 IRadAn=         4 AccDes= 0.00D+00
 Harris functional with IExCor= 1009 and IRadAn=       4 diagonalized for initial guess.
 HarFok:  IExCor= 1009 AccDes= 0.00D+00 IRadAn=         4 IDoV= 1 UseB2=F ITyADJ=14
 ICtDFT=  3500011 ScaDFX=  1.000000  1.000000  1.000000  1.000000
 FoFCou: FMM=F IPFlag=           0 FMFlag=      100000 FMFlg1=           0
         NFxFlg=           0 DoJE=T BraDBF=F KetDBF=T FulRan=T
         wScrn=  0.000000 ICntrl=       500 IOpCl=  0 I1Cent=   200000004 NGrid=           0
         NMat0=    1 NMatS0=      1 NMatT0=    0 NMatD0=    1 NMtDS0=    0 NMtDT0=    0
 Petite list used in FoFCou.
 Initial guess <Sx>= 0.0000 <Sy>= 0.0000 <Sz>= 0.5000 <S**2>= 0.7500 S= 0.5000
 Requested convergence on RMS density matrix=1.00D-08 within 128 cycles.
 Requested convergence on MAX density matrix=1.00D-06.
 Requested convergence on             energy=1.00D-06.
 No special actions if energy rises.
 Restarting incremental Fock formation.
 SCF Done:  E(UM062X) =  -575.946310705     A.U. after   25 cycles
            NFock= 25  Conv=0.96D-08     -V/T= 2.0033
 <Sx>= 0.0000 <Sy>= 0.0000 <Sz>= 0.5000 <S**2>= 0.7585 S= 0.5042
 <L.S>= 0.000000000000E+00
 Annihilation of the first spin contaminant:
 S**2 before annihilation     0.7585,   after     0.7500

 **********************************************************************

            Population analysis using the SCF density.

 **********************************************************************

 Orbital symmetries:
 Alpha Orbitals:
       Occupied  (A) (A) (A) (A) (A) (A) (A) (A) (A) (A) (A) (A)
                 (A) (A) (A) (A) (A) (A) (A) (A) (A) (A) (A) (A)
                 (A) (A) (A) (A) (A) (A) (A) (A) (A) (A) (A) (A)
                 (A) (A) (A) (A) (A) (A) (A) (A) (A) (A) (A)
       Virtual   (A) (A) (A) (A) (A) (A) (A) (A) (A) (A) (A) (A)
                 (A) (A) (A) (A) (A) (A) (A) (A) (A) (A) (A) (A)
                 (A) (A) (A) (A) (A) (A) (A) (A) (A) (A) (A) (A)
                 (A) (A) (A) (A) (A) (A) (A) (A) (A) (A) (A) (A)
                 (A) (A) (A) (A) (A) (A) (A) (A) (A) (A) (A) (A)
                 (A) (A) (A) (A) (A) (A) (A) (A) (A) (A) (A) (A)
                 (A) (A) (A) (A) (A) (A) (A) (A) (A) (A) (A) (A)
                 (A) (A) (A) (A) (A) (A) (A) (A) (A) (A) (A) (A)
                 (A) (A) (A) (A) (A) (A) (A) (A) (A) (A) (A) (A)
                 (A) (A) (A) (A) (A) (A) (A) (A) (A) (A) (A) (A)
                 (A) (A) (A) (A) (A) (A) (A) (A) (A) (A) (A) (A)
                 (A) (A) (A) (A) (A) (A) (A) (A) (A) (A) (A) (A)
                 (A) (A) (A) (A) (A) (A) (A) (A) (A) (A) (A) (A)
                 (A) (A) (A) (A) (A) (A) (A) (A) (A) (A) (A) (A)
                 (A) (A) (A) (A) (A) (A) (A) (A) (A) (A) (A) (A)
                 (A) (A) (A) (A) (A) (A) (A) (A) (A) (A) (A) (A)
                 (A) (A) (A) (A) (A) (A) (A) (A) (A) (A) (A) (A)
                 (A) (A) (A) (A) (A) (A) (A) (A) (A) (A) (A) (A)
                 (A) (A) (A) (A) (A) (A) (A) (A) (A) (A) (A) (A)
                 (A) (A) (A) (A) (A) (A) (A) (A) (A) (A) (A) (A)
                 (A) (A) (A) (A) (A) (A) (A) (A) (A) (A) (A) (A)
                 (A) (A) (A) (A) (A) (A) (A) (A) (A) (A) (A) (A)
                 (A) (A) (A) (A) (A) (A) (A) (A) (A) (A) (A) (A)
                 (A) (A) (A) (A) (A) (A) (A) (A) (A) (A) (A) (A)
                 (A) (A) (A) (A) (A) (A) (A) (A) (A) (A) (A) (A)
                 (A) (A) (A) (A) (A) (A) (A) (A) (A) (A) (A) (A)
                 (A) (A) (A) (A) (A) (A) (A) (A) (A) (A) (A) (A)
                 (A) (A) (A) (A) (A) (A) (A) (A) (A) (A) (A) (A)
                 (A) (A) (A) (A) (A) (A) (A) (A) (A) (A) (A) (A)
                 (A) (A) (A) (A) (A) (A) (A) (A) (A) (A) (A) (A)
                 (A) (A) (A) (A) (A) (A) (A) (A) (A) (A) (A) (A)
                 (A) (A) (A) (A) (A) (A) (A) (A) (A) (A) (A) (A)
                 (A) (A) (A) (A) (A) (A) (A) (A) (A) (A) (A) (A)
                 (A) (A) (A) (A) (A) (A) (A) (A) (A) (A) (A) (A)
                 (A) (A) (A) (A) (A) (A) (A) (A) (A) (A) (A) (A)
                 (A) (A) (A) (A) (A) (A) (A) (A) (A) (A) (A) (A)
                 (A) (A) (A) (A) (A) (A) (A) (A) (A) (A) (A) (A)
                 (A) (A) (A) (A) (A) (A) (A) (A) (A) (A) (A) (A)
                 (A) (A) (A) (A) (A) (A) (A) (A) (A) (A) (A) (A)
                 (A) (A) (A) (A) (A) (A) (A) (A) (A) (A) (A) (A)
                 (A) (A) (A) (A) (A) (A) (A) (A) (A) (A) (A)
 Beta  Orbitals:
       Occupied  (A) (A) (A) (A) (A) (A) (A) (A) (A) (A) (A) (A)
                 (A) (A) (A) (A) (A) (A) (A) (A) (A) (A) (A) (A)
                 (A) (A) (A) (A) (A) (A) (A) (A) (A) (A) (A) (A)
                 (A) (A) (A) (A) (A) (A) (A) (A) (A) (A)
       Virtual   (A) (A) (A) (A) (A) (A) (A) (A) (A) (A) (A) (A)
                 (A) (A) (A) (A) (A) (A) (A) (A) (A) (A) (A) (A)
                 (A) (A) (A) (A) (A) (A) (A) (A) (A) (A) (A) (A)
                 (A) (A) (A) (A) (A) (A) (A) (A) (A) (A) (A) (A)
                 (A) (A) (A) (A) (A) (A) (A) (A) (A) (A) (A) (A)
                 (A) (A) (A) (A) (A) (A) (A) (A) (A) (A) (A) (A)
                 (A) (A) (A) (A) (A) (A) (A) (A) (A) (A) (A) (A)
                 (A) (A) (A) (A) (A) (A) (A) (A) (A) (A) (A) (A)
                 (A) (A) (A) (A) (A) (A) (A) (A) (A) (A) (A) (A)
                 (A) (A) (A) (A) (A) (A) (A) (A) (A) (A) (A) (A)
                 (A) (A) (A) (A) (A) (A) (A) (A) (A) (A) (A) (A)
                 (A) (A) (A) (A) (A) (A) (A) (A) (A) (A) (A) (A)
                 (A) (A) (A) (A) (A) (A) (A) (A) (A) (A) (A) (A)
                 (A) (A) (A) (A) (A) (A) (A) (A) (A) (A) (A) (A)
                 (A) (A) (A) (A) (A) (A) (A) (A) (A) (A) (A) (A)
                 (A) (A) (A) (A) (A) (A) (A) (A) (A) (A) (A) (A)
                 (A) (A) (A) (A) (A) (A) (A) (A) (A) (A) (A) (A)
                 (A) (A) (A) (A) (A) (A) (A) (A) (A) (A) (A) (A)
                 (A) (A) (A) (A) (A) (A) (A) (A) (A) (A) (A) (A)
                 (A) (A) (A) (A) (A) (A) (A) (A) (A) (A) (A) (A)
                 (A) (A) (A) (A) (A) (A) (A) (A) (A) (A) (A) (A)
                 (A) (A) (A) (A) (A) (A) (A) (A) (A) (A) (A) (A)
                 (A) (A) (A) (A) (A) (A) (A) (A) (A) (A) (A) (A)
                 (A) (A) (A) (A) (A) (A) (A) (A) (A) (A) (A) (A)
                 (A) (A) (A) (A) (A) (A) (A) (A) (A) (A) (A) (A)
                 (A) (A) (A) (A) (A) (A) (A) (A) (A) (A) (A) (A)
                 (A) (A) (A) (A) (A) (A) (A) (A) (A) (A) (A) (A)
                 (A) (A) (A) (A) (A) (A) (A) (A) (A) (A) (A) (A)
                 (A) (A) (A) (A) (A) (A) (A) (A) (A) (A) (A) (A)
                 (A) (A) (A) (A) (A) (A) (A) (A) (A) (A) (A) (A)
                 (A) (A) (A) (A) (A) (A) (A) (A) (A) (A) (A) (A)
                 (A) (A) (A) (A) (A) (A) (A) (A) (A) (A) (A) (A)
                 (A) (A) (A) (A) (A) (A) (A) (A) (A) (A) (A) (A)
                 (A) (A) (A) (A) (A) (A) (A) (A) (A) (A) (A) (A)
                 (A) (A) (A) (A) (A) (A) (A) (A) (A) (A) (A) (A)
                 (A) (A) (A) (A) (A) (A) (A) (A) (A) (A) (A) (A)
                 (A) (A) (A) (A) (A) (A) (A) (A) (A) (A) (A) (A)
                 (A) (A) (A) (A) (A) (A) (A) (A) (A) (A) (A) (A)
                 (A) (A) (A) (A) (A) (A) (A) (A) (A) (A) (A) (A)
                 (A) (A) (A) (A) (A) (A) (A) (A) (A) (A) (A) (A)
                 (A) (A) (A) (A) (A) (A) (A) (A) (A) (A) (A) (A)
 The electronic state is 2-A.
 Alpha  occ. eigenvalues --  -19.73102 -19.72881 -10.55288 -10.54502 -10.54443
 Alpha  occ. eigenvalues --  -10.54384 -10.54326 -10.54278 -10.54213 -10.54212
 Alpha  occ. eigenvalues --  -10.54164 -10.53963 -10.52528  -1.26900  -1.06558
 Alpha  occ. eigenvalues --   -0.98882  -0.92942  -0.87831  -0.85739  -0.81623
 Alpha  occ. eigenvalues --   -0.78057  -0.71274  -0.68761  -0.68412  -0.65063
 Alpha  occ. eigenvalues --   -0.59158  -0.58831  -0.57901  -0.56234  -0.54856
 Alpha  occ. eigenvalues --   -0.51903  -0.51219  -0.48913  -0.48122  -0.47384
 Alpha  occ. eigenvalues --   -0.45925  -0.45186  -0.43583  -0.42641  -0.41859
 Alpha  occ. eigenvalues --   -0.40089  -0.39034  -0.38663  -0.36261  -0.34497
 Alpha  occ. eigenvalues --   -0.29402  -0.25778
 Alpha virt. eigenvalues --   -0.02267   0.00593   0.01375   0.01841   0.02087
 Alpha virt. eigenvalues --    0.02543   0.03317   0.03697   0.04200   0.05571
 Alpha virt. eigenvalues --    0.05665   0.06468   0.06869   0.07273   0.07766
 Alpha virt. eigenvalues --    0.08574   0.09083   0.09368   0.10252   0.11374
 Alpha virt. eigenvalues --    0.11949   0.12136   0.12787   0.13522   0.14339
 Alpha virt. eigenvalues --    0.14429   0.14930   0.15136   0.15894   0.16431
 Alpha virt. eigenvalues --    0.16726   0.17293   0.17926   0.18733   0.19023
 Alpha virt. eigenvalues --    0.19314   0.19635   0.19849   0.20209   0.20637
 Alpha virt. eigenvalues --    0.21335   0.21718   0.22534   0.23024   0.23300
 Alpha virt. eigenvalues --    0.23795   0.24039   0.24093   0.24963   0.25657
 Alpha virt. eigenvalues --    0.26234   0.26912   0.27131   0.27647   0.28123
 Alpha virt. eigenvalues --    0.28165   0.29141   0.29316   0.30194   0.30875
 Alpha virt. eigenvalues --    0.32260   0.32965   0.33197   0.34114   0.34450
 Alpha virt. eigenvalues --    0.35199   0.35891   0.36649   0.37656   0.38726
 Alpha virt. eigenvalues --    0.40393   0.41050   0.42894   0.44109   0.47090
 Alpha virt. eigenvalues --    0.47785   0.49510   0.51008   0.51671   0.51802
 Alpha virt. eigenvalues --    0.52567   0.53100   0.53681   0.54917   0.55671
 Alpha virt. eigenvalues --    0.56247   0.56534   0.57061   0.57441   0.57746
 Alpha virt. eigenvalues --    0.58788   0.59459   0.60333   0.60590   0.60720
 Alpha virt. eigenvalues --    0.61685   0.62106   0.64507   0.65605   0.65849
 Alpha virt. eigenvalues --    0.66309   0.67110   0.67225   0.68194   0.68508
 Alpha virt. eigenvalues --    0.68657   0.68962   0.69912   0.70263   0.70450
 Alpha virt. eigenvalues --    0.71439   0.71940   0.73200   0.73581   0.74132
 Alpha virt. eigenvalues --    0.74374   0.75968   0.76155   0.76495   0.76894
 Alpha virt. eigenvalues --    0.78213   0.78483   0.79382   0.79601   0.81613
 Alpha virt. eigenvalues --    0.82462   0.83620   0.83869   0.84856   0.85884
 Alpha virt. eigenvalues --    0.87300   0.88691   0.89467   0.89861   0.90459
 Alpha virt. eigenvalues --    0.91505   0.93329   0.94099   0.95481   0.97013
 Alpha virt. eigenvalues --    0.97279   0.99055   0.99692   1.00259   1.02007
 Alpha virt. eigenvalues --    1.03270   1.03862   1.05196   1.05220   1.07145
 Alpha virt. eigenvalues --    1.08150   1.08553   1.09891   1.10425   1.11605
 Alpha virt. eigenvalues --    1.12148   1.12982   1.14133   1.14975   1.16025
 Alpha virt. eigenvalues --    1.16784   1.18225   1.18722   1.19352   1.20406
 Alpha virt. eigenvalues --    1.20749   1.22151   1.24214   1.24758   1.26553
 Alpha virt. eigenvalues --    1.28309   1.28712   1.29828   1.30690   1.31220
 Alpha virt. eigenvalues --    1.32361   1.32833   1.33386   1.34892   1.35372
 Alpha virt. eigenvalues --    1.35917   1.37350   1.37579   1.37893   1.38309
 Alpha virt. eigenvalues --    1.39963   1.40511   1.41148   1.42511   1.42836
 Alpha virt. eigenvalues --    1.44015   1.46339   1.46560   1.47912   1.48701
 Alpha virt. eigenvalues --    1.49411   1.50113   1.50548   1.51510   1.52201
 Alpha virt. eigenvalues --    1.54145   1.54749   1.56101   1.57617   1.58866
 Alpha virt. eigenvalues --    1.61441   1.63536   1.66998   1.68377   1.70627
 Alpha virt. eigenvalues --    1.71909   1.74335   1.74948   1.75989   1.76344
 Alpha virt. eigenvalues --    1.77682   1.78637   1.79967   1.81335   1.82243
 Alpha virt. eigenvalues --    1.82474   1.85059   1.90186   1.91554   1.93296
 Alpha virt. eigenvalues --    1.94687   2.00781   2.03820   2.04151   2.07830
 Alpha virt. eigenvalues --    2.11808   2.14524   2.19250   2.22237   2.27340
 Alpha virt. eigenvalues --    2.33999   2.35407   2.39942   2.48226   2.52574
 Alpha virt. eigenvalues --    2.54233   2.55177   2.56192   2.59273   2.62319
 Alpha virt. eigenvalues --    2.64726   2.65490   2.66715   2.67591   2.69759
 Alpha virt. eigenvalues --    2.71507   2.73789   2.75095   2.75137   2.75863
 Alpha virt. eigenvalues --    2.76543   2.77230   2.78193   2.78648   2.80037
 Alpha virt. eigenvalues --    2.80913   2.82479   2.83307   2.84039   2.84481
 Alpha virt. eigenvalues --    2.84814   2.85708   2.86427   2.86840   2.87931
 Alpha virt. eigenvalues --    2.87975   2.89134   2.89180   2.90015   2.91299
 Alpha virt. eigenvalues --    2.91860   2.92025   2.95263   2.96230   2.97354
 Alpha virt. eigenvalues --    2.99336   2.99901   3.02174   3.03065   3.06222
 Alpha virt. eigenvalues --    3.08226   3.09843   3.10333   3.11523   3.12112
 Alpha virt. eigenvalues --    3.13396   3.14606   3.15137   3.16103   3.16832
 Alpha virt. eigenvalues --    3.17190   3.18542   3.19355   3.19769   3.21109
 Alpha virt. eigenvalues --    3.21752   3.23080   3.23879   3.24143   3.24932
 Alpha virt. eigenvalues --    3.25459   3.27311   3.28273   3.28987   3.29807
 Alpha virt. eigenvalues --    3.31417   3.32722   3.33211   3.34232   3.35171
 Alpha virt. eigenvalues --    3.36333   3.38912   3.40753   3.41315   3.42373
 Alpha virt. eigenvalues --    3.43202   3.43677   3.45365   3.46779   3.47098
 Alpha virt. eigenvalues --    3.48899   3.49124   3.50854   3.51406   3.52398
 Alpha virt. eigenvalues --    3.53773   3.53960   3.55677   3.56169   3.57080
 Alpha virt. eigenvalues --    3.58688   3.59551   3.61420   3.61772   3.64780
 Alpha virt. eigenvalues --    3.66456   3.68266   3.68593   3.69702   3.70587
 Alpha virt. eigenvalues --    3.71872   3.74131   3.75244   3.76364   3.77108
 Alpha virt. eigenvalues --    3.77737   3.79048   3.79458   3.80217   3.82715
 Alpha virt. eigenvalues --    3.83143   3.84857   3.86132   3.88694   3.90728
 Alpha virt. eigenvalues --    3.90948   3.93142   3.94901   3.97560   3.98478
 Alpha virt. eigenvalues --    3.99658   4.00190   4.04177   4.05426   4.06839
 Alpha virt. eigenvalues --    4.07546   4.07870   4.08364   4.10631   4.11123
 Alpha virt. eigenvalues --    4.12408   4.15077   4.16149   4.16556   4.17425
 Alpha virt. eigenvalues --    4.20432   4.21759   4.24086   4.26208   4.27368
 Alpha virt. eigenvalues --    4.28579   4.30033   4.30824   4.32373   4.32721
 Alpha virt. eigenvalues --    4.34641   4.37080   4.37636   4.38323   4.39044
 Alpha virt. eigenvalues --    4.41026   4.41902   4.42319   4.43736   4.45700
 Alpha virt. eigenvalues --    4.46610   4.48515   4.50392   4.51052   4.52429
 Alpha virt. eigenvalues --    4.53673   4.54189   4.54604   4.56424   4.58327
 Alpha virt. eigenvalues --    4.59235   4.61292   4.64237   4.67143   4.70852
 Alpha virt. eigenvalues --    4.73910   4.75808   4.77926   4.78594   4.79680
 Alpha virt. eigenvalues --    4.82330   4.86383   4.87960   4.90196   4.95055
 Alpha virt. eigenvalues --    4.96876   4.97297   5.00156   5.00613   5.00806
 Alpha virt. eigenvalues --    5.02768   5.05268   5.08705   5.11385   5.13298
 Alpha virt. eigenvalues --    5.13738   5.14963   5.19073   5.20348   5.21187
 Alpha virt. eigenvalues --    5.24788   5.25530   5.26647   5.30906   5.36910
 Alpha virt. eigenvalues --    5.45732   5.45998   5.51436   5.52869   5.56611
 Alpha virt. eigenvalues --    5.60006   5.63727   5.67979   5.71135   5.72872
 Alpha virt. eigenvalues --    5.73997   5.77503   5.83796   5.90673   5.94288
 Alpha virt. eigenvalues --    5.98362   6.02172   6.15371   6.20875   6.46507
 Alpha virt. eigenvalues --    6.57280   6.65394   6.69877   6.84224   6.87728
 Alpha virt. eigenvalues --    6.93343   6.99222   7.18348   7.29407   7.34863
 Alpha virt. eigenvalues --    7.43517   7.87630   8.12902  23.90294  24.22612
 Alpha virt. eigenvalues --   24.56719  24.59553  24.64309  24.65859  24.69431
 Alpha virt. eigenvalues --   24.80456  24.87778  25.09131  25.28605  49.97100
 Alpha virt. eigenvalues --   49.97979
  Beta  occ. eigenvalues --  -19.72477 -19.71532 -10.55277 -10.54503 -10.54442
  Beta  occ. eigenvalues --  -10.54383 -10.54327 -10.54278 -10.54208 -10.54204
  Beta  occ. eigenvalues --  -10.54162 -10.53950 -10.52432  -1.23599  -1.02223
  Beta  occ. eigenvalues --   -0.98839  -0.92845  -0.87771  -0.85555  -0.81480
  Beta  occ. eigenvalues --   -0.77564  -0.71096  -0.68400  -0.68313  -0.63934
  Beta  occ. eigenvalues --   -0.58977  -0.57908  -0.57513  -0.54918  -0.51882
  Beta  occ. eigenvalues --   -0.51172  -0.48884  -0.48107  -0.47295  -0.46300
  Beta  occ. eigenvalues --   -0.45585  -0.44871  -0.43368  -0.40320  -0.39969
  Beta  occ. eigenvalues --   -0.38934  -0.38649  -0.36078  -0.34416  -0.29415
  Beta  occ. eigenvalues --   -0.25774
  Beta virt. eigenvalues --   -0.12217  -0.02126   0.01081   0.01439   0.01964
  Beta virt. eigenvalues --    0.02124   0.02895   0.03377   0.03831   0.04369
  Beta virt. eigenvalues --    0.05668   0.05904   0.06658   0.07276   0.07306
  Beta virt. eigenvalues --    0.07815   0.08647   0.09361   0.09590   0.10393
  Beta virt. eigenvalues --    0.11481   0.12051   0.12187   0.12844   0.13592
  Beta virt. eigenvalues --    0.14427   0.14552   0.14982   0.15271   0.16017
  Beta virt. eigenvalues --    0.16550   0.16909   0.17375   0.17986   0.18818
  Beta virt. eigenvalues --    0.19164   0.19355   0.19661   0.19995   0.20266
  Beta virt. eigenvalues --    0.20709   0.21370   0.21806   0.22576   0.23111
  Beta virt. eigenvalues --    0.23397   0.23886   0.24088   0.24159   0.24988
  Beta virt. eigenvalues --    0.25788   0.26254   0.27013   0.27182   0.27713
  Beta virt. eigenvalues --    0.28184   0.28223   0.29202   0.29364   0.30283
  Beta virt. eigenvalues --    0.31303   0.32445   0.33059   0.33327   0.34167
  Beta virt. eigenvalues --    0.34550   0.35573   0.36110   0.36688   0.37935
  Beta virt. eigenvalues --    0.38778   0.40552   0.41115   0.42990   0.44220
  Beta virt. eigenvalues --    0.47202   0.47886   0.49762   0.51110   0.51697
  Beta virt. eigenvalues --    0.51853   0.52646   0.53163   0.53712   0.54967
  Beta virt. eigenvalues --    0.55698   0.56282   0.56554   0.57181   0.57469
  Beta virt. eigenvalues --    0.57774   0.58798   0.59504   0.60377   0.60639
  Beta virt. eigenvalues --    0.60739   0.61714   0.62243   0.64595   0.65645
  Beta virt. eigenvalues --    0.65889   0.66351   0.67151   0.67251   0.68234
  Beta virt. eigenvalues --    0.68523   0.68726   0.69006   0.69944   0.70303
  Beta virt. eigenvalues --    0.70501   0.71603   0.72073   0.73221   0.73608
  Beta virt. eigenvalues --    0.74153   0.74391   0.75983   0.76285   0.76534
  Beta virt. eigenvalues --    0.76947   0.78262   0.78538   0.79437   0.79901
  Beta virt. eigenvalues --    0.81645   0.82558   0.83675   0.83932   0.84865
  Beta virt. eigenvalues --    0.85932   0.87360   0.88742   0.89536   0.89948
  Beta virt. eigenvalues --    0.90508   0.91566   0.93377   0.94137   0.95641
  Beta virt. eigenvalues --    0.97210   0.97494   0.99166   0.99774   1.00335
  Beta virt. eigenvalues --    1.02736   1.03456   1.04135   1.05219   1.06570
  Beta virt. eigenvalues --    1.07287   1.08361   1.08704   1.10012   1.10746
  Beta virt. eigenvalues --    1.11803   1.12543   1.13020   1.14521   1.15297
  Beta virt. eigenvalues --    1.16391   1.17218   1.18316   1.18801   1.19855
  Beta virt. eigenvalues --    1.20414   1.21019   1.22363   1.24499   1.24875
  Beta virt. eigenvalues --    1.26648   1.28410   1.29039   1.30001   1.30729
  Beta virt. eigenvalues --    1.31317   1.32465   1.32877   1.33459   1.35016
  Beta virt. eigenvalues --    1.35423   1.35964   1.37379   1.37641   1.38098
  Beta virt. eigenvalues --    1.38487   1.40003   1.40550   1.41201   1.42776
  Beta virt. eigenvalues --    1.42922   1.44203   1.46527   1.46704   1.47991
  Beta virt. eigenvalues --    1.48853   1.49997   1.50194   1.50676   1.52073
  Beta virt. eigenvalues --    1.52424   1.54714   1.55306   1.56629   1.57926
  Beta virt. eigenvalues --    1.59511   1.62002   1.63960   1.67489   1.68498
  Beta virt. eigenvalues --    1.70655   1.72102   1.74395   1.74969   1.76026
  Beta virt. eigenvalues --    1.76481   1.77849   1.78671   1.80293   1.81766
  Beta virt. eigenvalues --    1.82457   1.83004   1.85211   1.90205   1.91579
  Beta virt. eigenvalues --    1.93337   1.94726   2.00841   2.03847   2.04372
  Beta virt. eigenvalues --    2.08573   2.11839   2.14646   2.19285   2.22572
  Beta virt. eigenvalues --    2.27959   2.35165   2.35925   2.40021   2.48356
  Beta virt. eigenvalues --    2.52648   2.54283   2.55214   2.56298   2.59656
  Beta virt. eigenvalues --    2.62363   2.64772   2.65492   2.66745   2.67669
  Beta virt. eigenvalues --    2.69730   2.71540   2.73816   2.75132   2.75175
  Beta virt. eigenvalues --    2.75924   2.76632   2.77261   2.78233   2.78744
  Beta virt. eigenvalues --    2.80106   2.80935   2.82615   2.83345   2.84071
  Beta virt. eigenvalues --    2.84543   2.84834   2.85758   2.86467   2.86888
  Beta virt. eigenvalues --    2.87953   2.88014   2.89186   2.89251   2.90074
  Beta virt. eigenvalues --    2.91326   2.91911   2.92071   2.95293   2.96298
  Beta virt. eigenvalues --    2.97412   2.99433   2.99931   3.02180   3.03096
  Beta virt. eigenvalues --    3.06261   3.08320   3.09895   3.10389   3.11557
  Beta virt. eigenvalues --    3.12169   3.13418   3.14604   3.15169   3.16142
  Beta virt. eigenvalues --    3.16872   3.17189   3.18585   3.19399   3.19800
  Beta virt. eigenvalues --    3.21156   3.21748   3.23086   3.23912   3.24183
  Beta virt. eigenvalues --    3.24973   3.25518   3.27390   3.28319   3.29041
  Beta virt. eigenvalues --    3.29824   3.31419   3.32728   3.33240   3.34273
  Beta virt. eigenvalues --    3.35203   3.36372   3.38958   3.40806   3.41397
  Beta virt. eigenvalues --    3.42417   3.43204   3.43736   3.45401   3.46813
  Beta virt. eigenvalues --    3.47173   3.48925   3.49175   3.50937   3.51447
  Beta virt. eigenvalues --    3.52469   3.53847   3.54069   3.55696   3.56271
  Beta virt. eigenvalues --    3.57231   3.59198   3.59633   3.61501   3.61951
  Beta virt. eigenvalues --    3.64831   3.66548   3.68353   3.68675   3.69823
  Beta virt. eigenvalues --    3.70690   3.71895   3.74289   3.75321   3.76519
  Beta virt. eigenvalues --    3.77165   3.77769   3.79093   3.79575   3.80295
  Beta virt. eigenvalues --    3.82756   3.83189   3.84938   3.86185   3.88717
  Beta virt. eigenvalues --    3.90801   3.91005   3.93201   3.94948   3.97595
  Beta virt. eigenvalues --    3.98529   3.99808   4.00256   4.04200   4.05356
  Beta virt. eigenvalues --    4.06886   4.07628   4.07950   4.08379   4.10664
  Beta virt. eigenvalues --    4.11143   4.12444   4.15121   4.16165   4.16584
  Beta virt. eigenvalues --    4.17410   4.20484   4.21844   4.24140   4.26276
  Beta virt. eigenvalues --    4.27435   4.28630   4.30096   4.30972   4.32433
  Beta virt. eigenvalues --    4.32850   4.34742   4.37155   4.37699   4.38435
  Beta virt. eigenvalues --    4.39088   4.41126   4.41962   4.42363   4.43861
  Beta virt. eigenvalues --    4.45741   4.46706   4.48648   4.50439   4.51110
  Beta virt. eigenvalues --    4.52508   4.53733   4.54263   4.54672   4.56679
  Beta virt. eigenvalues --    4.58369   4.59294   4.61330   4.64416   4.67244
  Beta virt. eigenvalues --    4.70882   4.74728   4.76289   4.78003   4.78724
  Beta virt. eigenvalues --    4.80059   4.82794   4.87010   4.88027   4.91022
  Beta virt. eigenvalues --    4.95124   4.96976   4.97517   5.00352   5.02985
  Beta virt. eigenvalues --    5.03529   5.04567   5.05449   5.09579   5.11671
  Beta virt. eigenvalues --    5.14205   5.15103   5.16082   5.20290   5.20791
  Beta virt. eigenvalues --    5.23181   5.24862   5.26629   5.26913   5.31021
  Beta virt. eigenvalues --    5.37076   5.45800   5.46729   5.51520   5.53384
  Beta virt. eigenvalues --    5.56715   5.60063   5.63987   5.68187   5.71454
  Beta virt. eigenvalues --    5.72981   5.74105   5.77556   5.83847   5.90750
  Beta virt. eigenvalues --    5.94400   5.98522   6.02244   6.15426   6.21414
  Beta virt. eigenvalues --    6.46553   6.57316   6.73640   6.78209   6.87334
  Beta virt. eigenvalues --    6.90680   6.94538   7.01191   7.19170   7.30562
  Beta virt. eigenvalues --    7.41909   7.43950   7.88925   8.14899  23.90299
  Beta virt. eigenvalues --   24.22618  24.56683  24.59561  24.64299  24.65865
  Beta virt. eigenvalues --   24.69453  24.80467  24.87793  25.09147  25.28619
  Beta virt. eigenvalues --   49.96658  49.97543
          Condensed to atoms (all electrons):
               1          2          3          4          5          6
     1  C    9.923916  -0.051281   0.277185  -0.047887   0.001729  -2.162424
     2  C   -0.051281   7.859970  -1.753354   0.158770  -0.023261   0.007769
     3  C    0.277185  -1.753354   9.685304   0.050810   0.348889  -0.771647
     4  C   -0.047887   0.158770   0.050810   6.076460   0.011229   0.112653
     5  H    0.001729  -0.023261   0.348889   0.011229   0.480432  -0.051267
     6  C   -2.162424   0.007769  -0.771647   0.112653  -0.051267  13.483711
     7  H    0.007557   0.388430   0.003909  -0.009447  -0.000118  -0.046591
     8  C    0.423412  -0.221003  -1.413406  -0.556573   0.062554  -3.526168
     9  H    0.001524  -0.014060   0.039540   0.402754  -0.006526  -0.072712
    10  C   -0.336642  -0.144937   0.395540  -0.099505  -0.002458  -0.493557
    11  C   -0.590488  -0.875512   0.173098   0.068615  -0.001860   0.420449
    12  H    0.027062   0.085237   0.005253   0.005750  -0.000003  -0.090666
    13  C    0.004131   0.066659  -0.472977  -0.402984   0.001622   0.099471
    14  H    0.003285   0.001686  -0.001995   0.000699   0.000000   0.073516
    15  C    0.230719   0.208459   0.735665   0.195391   0.010035  -1.121462
    16  H   -0.003499   0.003120   0.020173   0.030447  -0.000011  -0.060003
    17  H    0.001739   0.003281  -0.000298  -0.000858  -0.000001  -0.002886
    18  C   -1.632189   0.337630  -0.690691   0.081069   0.012290  -0.039926
    19  H   -0.033244   0.016446  -0.039967  -0.014247   0.000793  -0.012762
    20  H    0.071543  -0.077338  -0.004713   0.004739   0.000128  -0.037538
    21  H   -0.200634   0.048938   0.027663   0.035120   0.000718   0.007207
    22  O    0.040618   0.022700  -0.000304   0.005434  -0.000537   0.033200
    23  O   -0.097912   0.061411  -0.003694   0.000765  -0.000019   0.016321
    24  H    0.011328  -0.008926   0.002958   0.000398   0.000000  -0.001592
               7          8          9         10         11         12
     1  C    0.007557   0.423412   0.001524  -0.336642  -0.590488   0.027062
     2  C    0.388430  -0.221003  -0.014060  -0.144937  -0.875512   0.085237
     3  C    0.003909  -1.413406   0.039540   0.395540   0.173098   0.005253
     4  C   -0.009447  -0.556573   0.402754  -0.099505   0.068615   0.005750
     5  H   -0.000118   0.062554  -0.006526  -0.002458  -0.001860  -0.000003
     6  C   -0.046591  -3.526168  -0.072712  -0.493557   0.420449  -0.090666
     7  H    0.463033  -0.068422   0.000030   0.060190   0.022170   0.002888
     8  C   -0.068422  16.031511  -0.049929  -0.626058  -0.118008  -0.086340
     9  H    0.000030  -0.049929   0.483346   0.004436   0.001092   0.000014
    10  C    0.060190  -0.626058   0.004436   6.443138   0.229271   0.430847
    11  C    0.022170  -0.118008   0.001092   0.229271   6.577919  -0.001961
    12  H    0.002888  -0.086340   0.000014   0.430847  -0.001961   0.481415
    13  C   -0.001657   0.413894   0.009972  -0.489903   0.389807  -0.014835
    14  H   -0.000012  -0.005724  -0.000003  -0.055951   0.342809  -0.006397
    15  C    0.005579  -4.558388   0.045911   0.873026  -0.275718   0.011616
    16  H    0.000014  -0.072951   0.002553  -0.005049  -0.000309   0.000035
    17  H   -0.000002   0.058648  -0.000009   0.009273   0.008015  -0.000092
    18  C    0.002065  -0.080209   0.000358  -0.098938  -0.009041  -0.002203
    19  H    0.003196  -0.004178   0.000000   0.004804   0.001004   0.000013
    20  H   -0.001309   0.010701   0.000009  -0.008118  -0.001290  -0.000007
    21  H    0.000144  -0.003851  -0.000012   0.004241   0.000634   0.000000
    22  O   -0.004728  -0.003607   0.000006   0.002256   0.000158  -0.000016
    23  O   -0.000040   0.001933   0.000000  -0.000652  -0.000031  -0.000008
    24  H    0.000015   0.000163  -0.000000  -0.000119  -0.000005  -0.000000
              13         14         15         16         17         18
     1  C    0.004131   0.003285   0.230719  -0.003499   0.001739  -1.632189
     2  C    0.066659   0.001686   0.208459   0.003120   0.003281   0.337630
     3  C   -0.472977  -0.001995   0.735665   0.020173  -0.000298  -0.690691
     4  C   -0.402984   0.000699   0.195391   0.030447  -0.000858   0.081069
     5  H    0.001622   0.000000   0.010035  -0.000011  -0.000001   0.012290
     6  C    0.099471   0.073516  -1.121462  -0.060003  -0.002886  -0.039926
     7  H   -0.001657  -0.000012   0.005579   0.000014  -0.000002   0.002065
     8  C    0.413894  -0.005724  -4.558388  -0.072951   0.058648  -0.080209
     9  H    0.009972  -0.000003   0.045911   0.002553  -0.000009   0.000358
    10  C   -0.489903  -0.055951   0.873026  -0.005049   0.009273  -0.098938
    11  C    0.389807   0.342809  -0.275718  -0.000309   0.008015  -0.009041
    12  H   -0.014835  -0.006397   0.011616   0.000035  -0.000092  -0.002203
    13  C    6.394015   0.025883  -0.011327   0.022198   0.358933  -0.020349
    14  H    0.025883   0.486691  -0.005884  -0.000103  -0.006641   0.000250
    15  C   -0.011327  -0.005884   9.677160   0.433716  -0.056592  -0.187528
    16  H    0.022198  -0.000103   0.433716   0.484049  -0.006431  -0.000451
    17  H    0.358933  -0.006641  -0.056592  -0.006431   0.485003   0.000128
    18  C   -0.020349   0.000250  -0.187528  -0.000451   0.000128   7.914195
    19  H   -0.000150  -0.000000  -0.001850   0.000000   0.000000   0.158001
    20  H    0.000120   0.000000   0.001681  -0.000000  -0.000000   0.404479
    21  H    0.000097   0.000000  -0.001643   0.000000  -0.000000   0.458872
    22  O    0.000432   0.000000  -0.000437  -0.000000  -0.000000  -0.048447
    23  O    0.000095   0.000000  -0.000501  -0.000000  -0.000000   0.075062
    24  H   -0.000000  -0.000000   0.000022  -0.000000   0.000000  -0.005976
              19         20         21         22         23         24
     1  C   -0.033244   0.071543  -0.200634   0.040618  -0.097912   0.011328
     2  C    0.016446  -0.077338   0.048938   0.022700   0.061411  -0.008926
     3  C   -0.039967  -0.004713   0.027663  -0.000304  -0.003694   0.002958
     4  C   -0.014247   0.004739   0.035120   0.005434   0.000765   0.000398
     5  H    0.000793   0.000128   0.000718  -0.000537  -0.000019   0.000000
     6  C   -0.012762  -0.037538   0.007207   0.033200   0.016321  -0.001592
     7  H    0.003196  -0.001309   0.000144  -0.004728  -0.000040   0.000015
     8  C   -0.004178   0.010701  -0.003851  -0.003607   0.001933   0.000163
     9  H    0.000000   0.000009  -0.000012   0.000006   0.000000  -0.000000
    10  C    0.004804  -0.008118   0.004241   0.002256  -0.000652  -0.000119
    11  C    0.001004  -0.001290   0.000634   0.000158  -0.000031  -0.000005
    12  H    0.000013  -0.000007   0.000000  -0.000016  -0.000008  -0.000000
    13  C   -0.000150   0.000120   0.000097   0.000432   0.000095  -0.000000
    14  H   -0.000000   0.000000   0.000000   0.000000   0.000000  -0.000000
    15  C   -0.001850   0.001681  -0.001643  -0.000437  -0.000501   0.000022
    16  H    0.000000  -0.000000   0.000000  -0.000000  -0.000000  -0.000000
    17  H    0.000000  -0.000000  -0.000000  -0.000000  -0.000000   0.000000
    18  C    0.158001   0.404479   0.458872  -0.048447   0.075062  -0.005976
    19  H    0.772089  -0.010193  -0.028747  -0.391582  -0.086649  -0.001825
    20  H   -0.010193   0.505978  -0.021741  -0.000912  -0.002566  -0.000007
    21  H   -0.028747  -0.021741   0.515686   0.010986  -0.001130   0.000277
    22  O   -0.391582  -0.000912   0.010986   8.581010   0.049925  -0.012451
    23  O   -0.086649  -0.002566  -0.001130   0.049925   8.081099   0.227819
    24  H   -0.001825  -0.000007   0.000277  -0.012451   0.227819   0.518373
          Atomic-Atomic Spin Densities.
               1          2          3          4          5          6
     1  C    0.054219  -0.068648   0.036815  -0.038615   0.001933  -0.085270
     2  C   -0.068648   0.054180  -0.003384   0.010835  -0.000389   0.014263
     3  C    0.036815  -0.003384  -0.009740  -0.010481   0.001482  -0.047172
     4  C   -0.038615   0.010835  -0.010481  -0.002724  -0.001046   0.007401
     5  H    0.001933  -0.000389   0.001482  -0.001046  -0.000337  -0.000499
     6  C   -0.085270   0.014263  -0.047172   0.007401  -0.000499   0.091684
     7  H   -0.004083   0.000499  -0.000603  -0.000408  -0.000003   0.006422
     8  C   -0.005835  -0.041204   0.021563  -0.036491   0.000607   0.067602
     9  H   -0.000209  -0.000212   0.002464  -0.000720   0.000024  -0.000023
    10  C    0.000309   0.021860  -0.002216   0.005364  -0.000009  -0.022719
    11  C   -0.011062  -0.006540  -0.012893  -0.008111  -0.000033   0.044451
    12  H    0.000086  -0.000135   0.000092   0.000102   0.000000  -0.000399
    13  C   -0.000231  -0.013526   0.018982   0.017494   0.000049  -0.009473
    14  H   -0.000001   0.000025   0.000015   0.000022   0.000000  -0.000233
    15  C    0.015701   0.011947   0.043778   0.014447   0.000439  -0.067407
    16  H   -0.000012  -0.000064  -0.000044  -0.000206   0.000000   0.000164
    17  H    0.000005   0.000015  -0.000025  -0.000040  -0.000000   0.000108
    18  C    0.129160   0.041917  -0.030327   0.038012  -0.002582  -0.006983
    19  H    0.003634   0.017711  -0.001376  -0.002296  -0.000035   0.008606
    20  H   -0.004487   0.001479   0.000269   0.000624  -0.000009   0.000600
    21  H   -0.002824  -0.001263   0.001848   0.002030  -0.000106   0.000143
    22  O   -0.000302  -0.024847   0.006098   0.001494   0.000045  -0.012763
    23  O   -0.004984  -0.000782  -0.002298  -0.000737   0.000005   0.000764
    24  H    0.000019   0.000022   0.000074   0.000007  -0.000000   0.000010
               7          8          9         10         11         12
     1  C   -0.004083  -0.005835  -0.000209   0.000309  -0.011062   0.000086
     2  C    0.000499  -0.041204  -0.000212   0.021860  -0.006540  -0.000135
     3  C   -0.000603   0.021563   0.002464  -0.002216  -0.012893   0.000092
     4  C   -0.000408  -0.036491  -0.000720   0.005364  -0.008111   0.000102
     5  H   -0.000003   0.000607   0.000024  -0.000009  -0.000033   0.000000
     6  C    0.006422   0.067602  -0.000023  -0.022719   0.044451  -0.000399
     7  H    0.000107  -0.000441  -0.000000   0.001465   0.000526   0.000002
     8  C   -0.000441   0.059307  -0.001636  -0.010419   0.013401   0.000297
     9  H   -0.000000  -0.001636   0.000317   0.000102   0.000011  -0.000000
    10  C    0.001465  -0.010419   0.000102   0.033647  -0.022548   0.000005
    11  C    0.000526   0.013401   0.000011  -0.022548   0.014958  -0.000091
    12  H    0.000002   0.000297  -0.000000   0.000005  -0.000091  -0.000446
    13  C    0.000213  -0.003594  -0.000160  -0.009642   0.013784  -0.000196
    14  H   -0.000000   0.000018   0.000000   0.000183  -0.000112  -0.000002
    15  C   -0.000342  -0.101830   0.000363   0.021101  -0.025630   0.000048
    16  H    0.000000   0.000235   0.000004  -0.000015  -0.000028  -0.000000
    17  H   -0.000000   0.000179   0.000000  -0.000110   0.000055   0.000001
    18  C   -0.003753   0.047447   0.000051  -0.005957  -0.004781   0.000168
    19  H   -0.000570   0.003263  -0.000000   0.001115  -0.000037   0.000001
    20  H    0.000146  -0.000603   0.000000   0.000288   0.000096  -0.000001
    21  H    0.000012  -0.000727  -0.000002  -0.000020   0.000027  -0.000000
    22  O    0.000488  -0.000528   0.000001  -0.002050  -0.000174  -0.000004
    23  O    0.000064  -0.000368   0.000000   0.000244   0.000038  -0.000000
    24  H    0.000003   0.000015   0.000000  -0.000007  -0.000001  -0.000000
              13         14         15         16         17         18
     1  C   -0.000231  -0.000001   0.015701  -0.000012   0.000005   0.129160
     2  C   -0.013526   0.000025   0.011947  -0.000064   0.000015   0.041917
     3  C    0.018982   0.000015   0.043778  -0.000044  -0.000025  -0.030327
     4  C    0.017494   0.000022   0.014447  -0.000206  -0.000040   0.038012
     5  H    0.000049   0.000000   0.000439   0.000000  -0.000000  -0.002582
     6  C   -0.009473  -0.000233  -0.067407   0.000164   0.000108  -0.006983
     7  H    0.000213  -0.000000  -0.000342   0.000000  -0.000000  -0.003753
     8  C   -0.003594   0.000018  -0.101830   0.000235   0.000179   0.047447
     9  H   -0.000160   0.000000   0.000363   0.000004   0.000000   0.000051
    10  C   -0.009642   0.000183   0.021101  -0.000015  -0.000110  -0.005957
    11  C    0.013784  -0.000112  -0.025630  -0.000028   0.000055  -0.004781
    12  H   -0.000196  -0.000002   0.000048  -0.000000   0.000001   0.000168
    13  C   -0.019962  -0.000090   0.007938   0.000208   0.000038   0.006667
    14  H   -0.000090   0.000251   0.000127   0.000000  -0.000000  -0.000002
    15  C    0.007938   0.000127   0.065059  -0.000251  -0.000216   0.010103
    16  H    0.000208   0.000000  -0.000251   0.000236   0.000000  -0.000009
    17  H    0.000038  -0.000000  -0.000216   0.000000  -0.000582  -0.000001
    18  C    0.006667  -0.000002   0.010103  -0.000009  -0.000001  -0.143778
    19  H    0.000137   0.000000   0.000067  -0.000000  -0.000000  -0.021046
    20  H   -0.000008  -0.000000  -0.000171  -0.000000   0.000000   0.002670
    21  H   -0.000020  -0.000000  -0.000072  -0.000000   0.000000  -0.001139
    22  O   -0.000134  -0.000000   0.000090   0.000000   0.000000  -0.000228
    23  O   -0.000012  -0.000000  -0.000018   0.000000   0.000000   0.017281
    24  H    0.000000  -0.000000   0.000000   0.000000  -0.000000   0.000099
              19         20         21         22         23         24
     1  C    0.003634  -0.004487  -0.002824  -0.000302  -0.004984   0.000019
     2  C    0.017711   0.001479  -0.001263  -0.024847  -0.000782   0.000022
     3  C   -0.001376   0.000269   0.001848   0.006098  -0.002298   0.000074
     4  C   -0.002296   0.000624   0.002030   0.001494  -0.000737   0.000007
     5  H   -0.000035  -0.000009  -0.000106   0.000045   0.000005  -0.000000
     6  C    0.008606   0.000600   0.000143  -0.012763   0.000764   0.000010
     7  H   -0.000570   0.000146   0.000012   0.000488   0.000064   0.000003
     8  C    0.003263  -0.000603  -0.000727  -0.000528  -0.000368   0.000015
     9  H   -0.000000   0.000000  -0.000002   0.000001   0.000000   0.000000
    10  C    0.001115   0.000288  -0.000020  -0.002050   0.000244  -0.000007
    11  C   -0.000037   0.000096   0.000027  -0.000174   0.000038  -0.000001
    12  H    0.000001  -0.000001  -0.000000  -0.000004  -0.000000  -0.000000
    13  C    0.000137  -0.000008  -0.000020  -0.000134  -0.000012   0.000000
    14  H    0.000000  -0.000000  -0.000000  -0.000000  -0.000000  -0.000000
    15  C    0.000067  -0.000171  -0.000072   0.000090  -0.000018   0.000000
    16  H   -0.000000  -0.000000  -0.000000   0.000000   0.000000   0.000000
    17  H   -0.000000   0.000000   0.000000   0.000000   0.000000  -0.000000
    18  C   -0.021046   0.002670  -0.001139  -0.000228   0.017281   0.000099
    19  H   -0.014129   0.000157  -0.002509  -0.003660   0.022982   0.000181
    20  H    0.000157  -0.005954   0.000402   0.002463  -0.000477  -0.000018
    21  H   -0.002509   0.000402   0.001382   0.003341  -0.000708  -0.000014
    22  O   -0.003660   0.002463   0.003341   0.778414  -0.116011  -0.001894
    23  O    0.022982  -0.000477  -0.000708  -0.116011   0.332985   0.004020
    24  H    0.000181  -0.000018  -0.000014  -0.001894   0.004020  -0.012306
 Mulliken charges and spin densities:
               1          2
     1  C    0.130452   0.015317
     2  C   -0.100836   0.013760
     3  C   -0.612942   0.012923
     4  C   -0.109603  -0.004043
     5  H    0.155641  -0.000463
     6  C    0.236904  -0.010722
     7  H    0.173108  -0.000257
     8  C    0.392000   0.010258
     9  H    0.151702   0.000376
    10  C   -0.095135   0.009971
    11  C   -0.360815  -0.004694
    12  H    0.152396  -0.000474
    13  C   -0.373149   0.008464
    14  H    0.147890   0.000203
    15  C   -0.207650  -0.004728
    16  H    0.152504   0.000219
    17  H    0.148792  -0.000574
    18  C   -0.628450   0.072988
    19  H    0.669048   0.012196
    20  H    0.166354  -0.002536
    21  H    0.147172  -0.000220
    22  O   -0.283704   0.629840
    23  O   -0.321229   0.251987
    24  H    0.269548  -0.009788
 Sum of Mulliken charges =  -0.00000   1.00000
 Mulliken charges and spin densities with hydrogens summed into heavy atoms:
               1          2
     1  C    0.130452   0.015317
     2  C    0.072272   0.013503
     3  C   -0.457300   0.012460
     4  C    0.042099  -0.003668
     6  C    0.236904  -0.010722
     8  C    0.392000   0.010258
    10  C    0.057262   0.009497
    11  C   -0.212925  -0.004492
    13  C   -0.224357   0.007890
    15  C   -0.055146  -0.004509
    18  C    0.354125   0.082427
    22  O   -0.283704   0.629840
    23  O   -0.051681   0.242200
 Electronic spatial extent (au):  <R**2>=           3299.0090
 Charge=             -0.0000 electrons
 Dipole moment (field-independent basis, Debye):
    X=              1.4959    Y=              0.9952    Z=             -0.5045  Tot=              1.8662
 Quadrupole moment (field-independent basis, Debye-Ang):
   XX=            -57.3546   YY=            -72.6141   ZZ=            -80.1114
   XY=              4.1232   XZ=             -2.0787   YZ=             -2.0954
 Traceless Quadrupole moment (field-independent basis, Debye-Ang):
   XX=             12.6721   YY=             -2.5874   ZZ=            -10.0847
   XY=              4.1232   XZ=             -2.0787   YZ=             -2.0954
 Octapole moment (field-independent basis, Debye-Ang**2):
  XXX=            125.1549  YYY=             -2.0666  ZZZ=             -4.0198  XYY=             -3.5726
  XXY=              8.1908  XXZ=            -38.1097  XZZ=             29.7949  YZZ=             -3.9560
  YYZ=             -1.5866  XYZ=              5.8606
 Hexadecapole moment (field-independent basis, Debye-Ang**3):
 XXXX=          -2397.5950 YYYY=           -821.5946 ZZZZ=           -167.1913 XXXY=              7.4700
 XXXZ=           -172.2815 YYYX=             -2.6125 YYYZ=            -19.1955 ZZZX=            -25.3445
 ZZZY=              6.9483 XXYY=           -695.1589 XXZZ=           -560.3465 YYZZ=           -185.9985
 XXYZ=              9.6049 YYXZ=             -2.0072 ZZXY=            -24.3232
 N-N= 7.103903653844D+02 E-N=-2.763885955327D+03  KE= 5.740542806210D+02
                          Isotropic Fermi Contact Couplings
        Atom                 a.u.       MegaHertz       Gauss      10(-4) cm-1
     1  C(13)              0.00654       7.35527       2.62454       2.45346
     2  C(13)              0.00260       2.91861       1.04143       0.97354
     3  C(13)              0.00478       5.37216       1.91692       1.79196
     4  C(13)              0.00064       0.71571       0.25538       0.23874
     5  H(1)              -0.00000      -0.01190      -0.00425      -0.00397
     6  C(13)             -0.00146      -1.64665      -0.58757      -0.54926
     7  H(1)              -0.00034      -1.52833      -0.54535      -0.50980
     8  C(13)              0.00084       0.94877       0.33855       0.31648
     9  H(1)               0.00018       0.82675       0.29501       0.27578
    10  C(13)              0.00084       0.94735       0.33804       0.31600
    11  C(13)             -0.00074      -0.83507      -0.29797      -0.27855
    12  H(1)              -0.00011      -0.47756      -0.17040      -0.15930
    13  C(13)              0.00090       1.01050       0.36057       0.33707
    14  H(1)               0.00004       0.17271       0.06163       0.05761
    15  C(13)             -0.00074      -0.83323      -0.29732      -0.27794
    16  H(1)               0.00005       0.21707       0.07746       0.07241
    17  H(1)              -0.00011      -0.49851      -0.17788      -0.16629
    18  C(13)              0.04287      48.19450      17.19700      16.07596
    19  H(1)               0.00315      14.08594       5.02622       4.69857
    20  H(1)              -0.00185      -8.27550      -2.95290      -2.76041
    21  H(1)              -0.00027      -1.20252      -0.42909      -0.40112
    22  O(17)              0.17164    -104.04523     -37.12592     -34.70575
    23  O(17)              0.05134     -31.12467     -11.10606     -10.38207
    24  H(1)              -0.00497     -22.20105      -7.92188      -7.40547
 --------------------------------------------------------
       Center         ----  Spin Dipole Couplings  ----
                      3XX-RR        3YY-RR        3ZZ-RR
 --------------------------------------------------------
     1   Atom        0.027210     -0.007858     -0.019352
     2   Atom       -0.003442     -0.012645      0.016086
     3   Atom       -0.000723     -0.003098      0.003821
     4   Atom        0.003711      0.000048     -0.003759
     5   Atom       -0.000134      0.002021     -0.001887
     6   Atom        0.004319      0.000375     -0.004694
     7   Atom        0.004824     -0.001747     -0.003077
     8   Atom       -0.001326     -0.003664      0.004989
     9   Atom        0.000714      0.000034     -0.000747
    10   Atom       -0.001698     -0.003879      0.005577
    11   Atom        0.002311      0.000956     -0.003267
    12   Atom        0.001016     -0.000107     -0.000909
    13   Atom       -0.002529     -0.003664      0.006193
    14   Atom        0.000689     -0.000298     -0.000391
    15   Atom        0.002518      0.001151     -0.003669
    16   Atom        0.000669     -0.000253     -0.000416
    17   Atom        0.000992     -0.000718     -0.000274
    18   Atom        0.001488      0.034643     -0.036130
    19   Atom        0.034007      0.015293     -0.049299
    20   Atom       -0.007157     -0.005632      0.012789
    21   Atom       -0.005177      0.014380     -0.009203
    22   Atom       -0.877750     -1.104511      1.982261
    23   Atom       -0.765737     -0.256028      1.021766
    24   Atom        0.015597     -0.007854     -0.007743
 --------------------------------------------------------
                        XY            XZ            YZ
 --------------------------------------------------------
     1   Atom       -0.009431     -0.009424      0.001670
     2   Atom       -0.000529     -0.009879      0.004832
     3   Atom       -0.004591      0.005125     -0.003051
     4   Atom       -0.000207      0.004639     -0.000935
     5   Atom       -0.002001     -0.000017     -0.000740
     6   Atom        0.000583      0.000695     -0.000955
     7   Atom        0.001767     -0.003009     -0.001581
     8   Atom       -0.000699     -0.001806      0.001896
     9   Atom       -0.000688      0.000243     -0.000027
    10   Atom        0.000164     -0.002304      0.001717
    11   Atom        0.000369      0.000895     -0.000864
    12   Atom        0.000584     -0.000324     -0.000305
    13   Atom       -0.000345     -0.001875      0.002411
    14   Atom        0.000185      0.000020     -0.000030
    15   Atom        0.000229      0.000989     -0.001096
    16   Atom       -0.000020      0.000062      0.000023
    17   Atom        0.000134      0.000118      0.000123
    18   Atom       -0.086959     -0.046524      0.056402
    19   Atom       -0.105930     -0.026967      0.041627
    20   Atom       -0.005393     -0.004766      0.007804
    21   Atom       -0.001182     -0.003541      0.001432
    22   Atom        0.404289      1.350503      1.005473
    23   Atom        0.203711      0.118328      0.905502
    24   Atom        0.032469     -0.035342     -0.010125
 --------------------------------------------------------


 ---------------------------------------------------------------------------------
              Anisotropic Spin Dipole Couplings in Principal Axis System
 ---------------------------------------------------------------------------------

       Atom             a.u.   MegaHertz   Gauss  10(-4) cm-1        Axes

              Baa    -0.0212    -2.843    -1.015    -0.948  0.1938  0.0142  0.9809
     1 C(13)  Bbb    -0.0102    -1.368    -0.488    -0.456  0.2300  0.9714 -0.0595
              Bcc     0.0314     4.211     1.503     1.405  0.9537 -0.2371 -0.1850
 
              Baa    -0.0136    -1.825    -0.651    -0.609 -0.1517  0.9663 -0.2078
     2 C(13)  Bbb    -0.0073    -0.974    -0.348    -0.325  0.9143  0.2171  0.3419
              Bcc     0.0209     2.800     0.999     0.934 -0.3755  0.1381  0.9165
 
              Baa    -0.0067    -0.903    -0.322    -0.301  0.6587  0.7451 -0.1046
     3 C(13)  Bbb    -0.0026    -0.343    -0.122    -0.114 -0.5082  0.5432  0.6683
              Bcc     0.0093     1.246     0.445     0.416  0.5547 -0.3871  0.7365
 
              Baa    -0.0061    -0.815    -0.291    -0.272 -0.4230  0.1229  0.8977
     4 C(13)  Bbb     0.0001     0.011     0.004     0.004  0.1430  0.9874 -0.0677
              Bcc     0.0060     0.804     0.287     0.268  0.8948 -0.0997  0.4353
 
              Baa    -0.0021    -1.147    -0.409    -0.383  0.3160  0.3107  0.8964
     5 H(1)   Bbb    -0.0011    -0.610    -0.218    -0.203  0.8062  0.4103 -0.4264
              Bcc     0.0033     1.757     0.627     0.586 -0.5002  0.8574 -0.1208
 
              Baa    -0.0049    -0.662    -0.236    -0.221 -0.0852  0.1854  0.9790
     6 C(13)  Bbb     0.0005     0.067     0.024     0.022 -0.1132  0.9744 -0.1944
              Bcc     0.0044     0.595     0.212     0.199  0.9899  0.1274  0.0620
 
              Baa    -0.0045    -2.388    -0.852    -0.797  0.2189  0.3792  0.8991
     7 H(1)   Bbb    -0.0020    -1.041    -0.371    -0.347 -0.3591  0.8880 -0.2871
              Bcc     0.0064     3.429     1.223     1.144  0.9073  0.2601 -0.3305
 
              Baa    -0.0041    -0.550    -0.196    -0.184  0.1299  0.9755 -0.1776
     8 C(13)  Bbb    -0.0018    -0.240    -0.086    -0.080  0.9578 -0.0772  0.2767
              Bcc     0.0059     0.791     0.282     0.264 -0.2563  0.2061  0.9444
 
              Baa    -0.0008    -0.427    -0.152    -0.142 -0.2246 -0.1541  0.9622
     9 H(1)   Bbb    -0.0004    -0.196    -0.070    -0.065  0.4802  0.8417  0.2469
              Bcc     0.0012     0.622     0.222     0.208  0.8479 -0.5175  0.1151
 
              Baa    -0.0043    -0.581    -0.207    -0.194 -0.2532  0.9416 -0.2221
    10 C(13)  Bbb    -0.0022    -0.291    -0.104    -0.097  0.9305  0.2998  0.2104
              Bcc     0.0065     0.871     0.311     0.291 -0.2647  0.1534  0.9521
 
              Baa    -0.0036    -0.482    -0.172    -0.161 -0.1591  0.1968  0.9675
    11 C(13)  Bbb     0.0011     0.148     0.053     0.049 -0.1332  0.9667 -0.2185
              Bcc     0.0025     0.334     0.119     0.111  0.9782  0.1637  0.1276
 
              Baa    -0.0010    -0.545    -0.194    -0.182  0.0742  0.2729  0.9592
    12 H(1)   Bbb    -0.0003    -0.172    -0.061    -0.057 -0.4340  0.8748 -0.2153
              Bcc     0.0013     0.716     0.256     0.239  0.8979  0.4003 -0.1833
 
              Baa    -0.0042    -0.567    -0.202    -0.189 -0.0629  0.9698 -0.2357
    13 C(13)  Bbb    -0.0029    -0.389    -0.139    -0.130  0.9791  0.1058  0.1739
              Bcc     0.0071     0.956     0.341     0.319 -0.1935  0.2198  0.9561
 
              Baa    -0.0004    -0.216    -0.077    -0.072 -0.0844  0.3996  0.9128
    14 H(1)   Bbb    -0.0003    -0.169    -0.060    -0.056 -0.1572  0.8992 -0.4083
              Bcc     0.0007     0.385     0.138     0.129  0.9840  0.1779  0.0131
 
              Baa    -0.0041    -0.545    -0.195    -0.182 -0.1524  0.2098  0.9658
    15 C(13)  Bbb     0.0014     0.186     0.066     0.062 -0.0111  0.9768 -0.2139
              Bcc     0.0027     0.359     0.128     0.120  0.9883  0.0433  0.1466
 
              Baa    -0.0004    -0.226    -0.081    -0.075 -0.0588 -0.1391  0.9885
    16 H(1)   Bbb    -0.0003    -0.134    -0.048    -0.045  0.0119  0.9901  0.1400
              Bcc     0.0007     0.359     0.128     0.120  0.9982 -0.0200  0.0565
 
              Baa    -0.0008    -0.403    -0.144    -0.134 -0.0585  0.9706 -0.2337
    17 H(1)   Bbb    -0.0003    -0.138    -0.049    -0.046 -0.1154  0.2259  0.9673
              Bcc     0.0010     0.541     0.193     0.181  0.9916  0.0835  0.0988
 
              Baa    -0.0705    -9.455    -3.374    -3.154  0.7633  0.6456 -0.0262
    18 C(13)  Bbb    -0.0669    -8.982    -3.205    -2.996  0.2693 -0.2810  0.9212
              Bcc     0.1374    18.437     6.579     6.150 -0.5873  0.7102  0.3883
 
              Baa    -0.0874   -46.614   -16.633   -15.549  0.5456  0.7299 -0.4117
    19 H(1)   Bbb    -0.0557   -29.693   -10.595    -9.904  0.4511  0.1582  0.8783
              Bcc     0.1430    76.307    27.228    25.453  0.7063 -0.6649 -0.2430
 
              Baa    -0.0120    -6.389    -2.280    -2.131  0.7036  0.7052 -0.0869
    20 H(1)   Bbb    -0.0053    -2.852    -1.018    -0.951  0.6633 -0.6082  0.4360
              Bcc     0.0173     9.241     3.297     3.082 -0.2547  0.3644  0.8957
 
              Baa    -0.0113    -6.018    -2.148    -2.008  0.4980 -0.0254  0.8668
    21 H(1)   Bbb    -0.0033    -1.754    -0.626    -0.585  0.8642  0.0978 -0.4936
[...]
     Eigenvalues ---    0.46496   0.46573   0.46846   0.47160   0.54745
     Eigenvalues ---    0.62474
 En-DIIS/RFO-DIIS/Sim-DIIS IScMMF=       -3 using points:    25   24   23   22   21   20   19   18   17
 RFO step:  Lambda=-8.95441348D-07.
 DidBck=F Rises=F RFO-DIIS coefs:    1.26915   -0.12338   -0.28019    0.01970    0.13399
                  RFO-DIIS coefs:   -0.06090    0.03109   -0.00295    0.01348
 Iteration  1 RMS(Cart)=  0.00307643 RMS(Int)=  0.00000381
 Iteration  2 RMS(Cart)=  0.00000506 RMS(Int)=  0.00000179
 Iteration  3 RMS(Cart)=  0.00000000 RMS(Int)=  0.00000179
 Variable       Old X    -DE/DX   Delta X   Delta X   Delta X     New X
                                 (Linear)    (Quad)   (Total)
    R1        2.58471  -0.00001   0.00003  -0.00008  -0.00005   2.58466
    R2        2.68294   0.00002   0.00004   0.00001   0.00005   2.68299
    R3        2.84065  -0.00006   0.00005  -0.00015  -0.00010   2.84055
    R4        2.67930  -0.00004   0.00008  -0.00012  -0.00005   2.67925
    R5        2.04746  -0.00001   0.00004  -0.00004  -0.00000   2.04746
    R6        2.57680   0.00001  -0.00001   0.00004   0.00002   2.57682
    R7        2.04748   0.00000  -0.00002   0.00002  -0.00001   2.04747
    R8        2.67888  -0.00001   0.00000  -0.00004  -0.00004   2.67884
    R9        2.04572  -0.00000  -0.00002  -0.00002  -0.00004   2.04568
   R10        2.67867  -0.00004  -0.00002  -0.00007  -0.00010   2.67857
   R11        2.67679  -0.00003  -0.00003  -0.00007  -0.00009   2.67670
   R12        2.67520  -0.00003   0.00003  -0.00006  -0.00003   2.67517
   R13        2.58229   0.00001   0.00002   0.00001   0.00003   2.58233
   R14        2.04525  -0.00001  -0.00002  -0.00002  -0.00004   2.04521
   R15        2.67001  -0.00002  -0.00000  -0.00003  -0.00003   2.66998
   R16        2.04392   0.00000  -0.00001   0.00000  -0.00001   2.04391
   R17        2.58238   0.00003  -0.00002   0.00006   0.00003   2.58242
   R18        2.04302  -0.00000  -0.00001  -0.00001  -0.00002   2.04301
   R19        2.04572  -0.00000  -0.00003   0.00001  -0.00002   2.04570
   R20        2.05501  -0.00005   0.00013  -0.00017  -0.00005   2.05496
   R21        2.06218   0.00001   0.00006  -0.00005   0.00001   2.06219
   R22        2.05939   0.00003   0.00002   0.00006   0.00008   2.05947
   R23        4.91991   0.00003   0.01094   0.00039   0.01133   4.93124
   R24        2.46596   0.00003  -0.00008   0.00011   0.00004   2.46600
   R25        1.83706  -0.00004  -0.00007  -0.00002  -0.00009   1.83697
    A1        2.07320  -0.00002  -0.00002  -0.00005  -0.00007   2.07312
    A2        2.12337  -0.00003  -0.00017  -0.00005  -0.00022   2.12315
    A3        2.08652   0.00005   0.00019   0.00010   0.00029   2.08681
    A4        2.12051   0.00002   0.00005   0.00002   0.00006   2.12057
    A5        2.09038  -0.00000  -0.00001  -0.00001  -0.00002   2.09037
    A6        2.07229  -0.00001  -0.00004  -0.00001  -0.00005   2.07224
    A7        2.11625  -0.00000  -0.00003   0.00004   0.00000   2.11626
    A8        2.07468  -0.00001   0.00008  -0.00013  -0.00005   2.07463
    A9        2.09225   0.00001  -0.00004   0.00009   0.00005   2.09230
   A10        2.10745  -0.00001   0.00005  -0.00006  -0.00000   2.10744
   A11        2.10491   0.00001   0.00002   0.00004   0.00006   2.10498
   A12        2.07083  -0.00000  -0.00007   0.00001  -0.00006   2.07077
   A13        2.08051   0.00001  -0.00006   0.00006   0.00000   2.08051
   A14        2.12845  -0.00002   0.00001  -0.00005  -0.00005   2.12840
   A15        2.07423   0.00001   0.00005  -0.00000   0.00005   2.07428
   A16        2.06845   0.00000   0.00002  -0.00001   0.00001   2.06846
   A17        2.13549  -0.00001   0.00005  -0.00004   0.00001   2.13550
   A18        2.07924   0.00001  -0.00007   0.00005  -0.00002   2.07923
   A19        2.10795   0.00000   0.00001  -0.00001   0.00000   2.10796
   A20        2.06802   0.00000  -0.00005   0.00003  -0.00002   2.06800
   A21        2.10721  -0.00001   0.00004  -0.00002   0.00002   2.10723
   A22        2.10013  -0.00001  -0.00004   0.00001  -0.00003   2.10011
   A23        2.09506   0.00000  -0.00002   0.00001  -0.00000   2.09505
   A24        2.08800   0.00001   0.00006  -0.00003   0.00003   2.08802
   A25        2.09764  -0.00001   0.00001  -0.00002  -0.00001   2.09763
   A26        2.08708   0.00001   0.00004   0.00002   0.00006   2.08714
   A27        2.09847  -0.00000  -0.00006   0.00001  -0.00005   2.09842
   A28        2.10717  -0.00000   0.00004  -0.00003   0.00000   2.10718
   A29        2.07331  -0.00000  -0.00001   0.00000  -0.00001   2.07330
   A30        2.10270   0.00001  -0.00002   0.00003   0.00001   2.10271
   A31        1.93815  -0.00002  -0.00021  -0.00012  -0.00032   1.93783
   A32        1.93079   0.00004  -0.00022   0.00030   0.00008   1.93086
   A33        1.94005  -0.00003   0.00037  -0.00043  -0.00006   1.93999
   A34        1.88791  -0.00000   0.00012  -0.00000   0.00011   1.88802
   A35        1.89161  -0.00001   0.00004  -0.00028  -0.00024   1.89137
   A36        1.87316   0.00003  -0.00009   0.00055   0.00045   1.87361
   A37        1.84957   0.00001   0.00030  -0.00031  -0.00001   1.84956
   A38        2.74344   0.00001  -0.00106   0.00108   0.00002   2.74346
   A39        3.65956  -0.00007  -0.00503   0.00005  -0.00498   3.65457
   A40        3.09562   0.00001  -0.00068  -0.00029  -0.00096   3.09466
   A41        3.90951  -0.00001  -0.00041   0.00046   0.00006   3.90957
    D1       -0.00377  -0.00000   0.00018  -0.00029  -0.00011  -0.00388
    D2        3.14017   0.00000   0.00003  -0.00013  -0.00010   3.14006
    D3        3.12270   0.00000   0.00028  -0.00031  -0.00002   3.12267
    D4       -0.01655   0.00001   0.00014  -0.00015  -0.00001  -0.01656
    D5        0.00261  -0.00000   0.00011  -0.00003   0.00009   0.00269
    D6       -3.13841  -0.00001   0.00049  -0.00054  -0.00005  -3.13846
    D7       -3.12419  -0.00000   0.00001  -0.00001   0.00000  -3.12419
    D8        0.01798  -0.00001   0.00038  -0.00052  -0.00014   0.01784
    D9        0.18178   0.00002  -0.00118   0.00039  -0.00079   0.18099
   D10       -1.91474   0.00001  -0.00104   0.00027  -0.00077  -1.91551
   D11        2.28919  -0.00004  -0.00101  -0.00034  -0.00135   2.28785
   D12       -2.97505   0.00002  -0.00107   0.00037  -0.00070  -2.97575
   D13        1.21161   0.00001  -0.00093   0.00025  -0.00068   1.21093
   D14       -0.86764  -0.00003  -0.00091  -0.00035  -0.00126  -0.86890
   D15        0.00148   0.00000  -0.00037   0.00041   0.00004   0.00152
   D16       -3.13883   0.00000  -0.00020   0.00042   0.00022  -3.13861
   D17        3.14075  -0.00000  -0.00022   0.00026   0.00003   3.14078
   D18        0.00045   0.00000  -0.00006   0.00026   0.00020   0.00065
   D19        0.00090   0.00000  -0.00021   0.00022   0.00001   0.00091
   D20       -3.14142  -0.00001   0.00007  -0.00036  -0.00029   3.14148
   D21       -3.14128   0.00001  -0.00059   0.00073   0.00015  -3.14113
   D22       -0.00041  -0.00000  -0.00031   0.00016  -0.00015  -0.00056
   D23       -0.00318   0.00000   0.00002  -0.00009  -0.00008  -0.00326
   D24        3.13861  -0.00000   0.00007  -0.00031  -0.00025   3.13836
   D25        3.13913   0.00001  -0.00026   0.00047   0.00021   3.13934
   D26       -0.00227   0.00000  -0.00021   0.00025   0.00004  -0.00223
   D27        0.00202  -0.00000   0.00026  -0.00021   0.00005   0.00207
   D28       -3.13977   0.00000   0.00022  -0.00000   0.00021  -3.13955
   D29       -3.14082  -0.00000   0.00010  -0.00022  -0.00012  -3.14094
   D30        0.00058   0.00000   0.00005  -0.00001   0.00005   0.00063
   D31        3.13878  -0.00000  -0.00016  -0.00011  -0.00027   3.13852
   D32       -0.00298  -0.00001  -0.00016  -0.00013  -0.00028  -0.00326
   D33       -0.00152  -0.00000   0.00001  -0.00010  -0.00010  -0.00162
   D34        3.13990  -0.00000   0.00001  -0.00013  -0.00011   3.13979
   D35       -3.14088   0.00000  -0.00009   0.00027   0.00018  -3.14070
   D36       -0.00136  -0.00000   0.00002  -0.00012  -0.00010  -0.00146
   D37        0.00091   0.00000  -0.00004   0.00005   0.00001   0.00092
   D38        3.14043  -0.00001   0.00007  -0.00034  -0.00027   3.14016
   D39        0.00099   0.00000  -0.00008   0.00017   0.00008   0.00108
   D40       -3.14147   0.00000  -0.00009   0.00017   0.00008  -3.14139
   D41       -3.14043   0.00001  -0.00009   0.00019   0.00010  -3.14033
   D42        0.00029   0.00000  -0.00009   0.00019   0.00010   0.00039
   D43        0.00052  -0.00000   0.00009  -0.00012  -0.00003   0.00050
   D44       -3.14057   0.00000  -0.00004   0.00011   0.00007  -3.14051
   D45       -3.14020  -0.00000   0.00010  -0.00012  -0.00002  -3.14023
   D46        0.00189   0.00000  -0.00003   0.00010   0.00007   0.00196
   D47       -0.00147  -0.00000  -0.00003   0.00001  -0.00002  -0.00149
   D48       -3.14096   0.00001  -0.00014   0.00040   0.00026  -3.14070
   D49        3.13962  -0.00000   0.00010  -0.00022  -0.00012   3.13951
   D50        0.00013   0.00000  -0.00001   0.00018   0.00016   0.00030
   D51        2.45731  -0.00004  -0.00009  -0.00039  -0.00049   2.45681
   D52       -1.81020  -0.00002  -0.00094   0.00025  -0.00069  -1.81089
   D53        0.28776   0.00002   0.00084   0.00023   0.00109   0.28884
         Item               Value     Threshold  Converged?
 Maximum Force            0.000066     0.002500     YES
 RMS     Force            0.000019     0.001667     YES
 Maximum Displacement     0.017181     0.010000     NO 
 RMS     Displacement     0.003075     0.006667     YES
 Predicted change in Energy=-4.126922D-07
 GradGradGradGradGradGradGradGradGradGradGradGradGradGradGradGradGradGrad

                          Input orientation:                          
 ---------------------------------------------------------------------
 Center     Atomic      Atomic             Coordinates (Angstroms)
 Number     Number       Type             X           Y           Z
 ---------------------------------------------------------------------
      1          6           0       -8.354658   -0.438876   -0.495937
      2          6           0       -7.448077    0.538198   -0.802790
      3          6           0       -7.908164   -1.589833    0.205286
      4          6           0       -6.603335   -1.730894    0.575304
      5          1           0       -8.624565   -2.366046    0.446499
      6          6           0       -6.084059    0.425816   -0.432680
      7          1           0       -7.771121    1.422643   -1.338793
      8          6           0       -5.650714   -0.726578    0.269700
      9          1           0       -6.274280   -2.612880    1.109804
     10          6           0       -5.137929    1.433401   -0.742421
     11          6           0       -3.829483    1.301949   -0.370895
     12          1           0       -5.474787    2.310028   -1.280357
     13          6           0       -3.398775    0.153132    0.329803
     14          1           0       -3.117121    2.078830   -0.613461
     15          6           0       -4.288937   -0.836032    0.640673
     16          1           0       -3.964232   -1.717856    1.178116
     17          1           0       -2.360990    0.062023    0.618773
     18          6           0       -9.806143   -0.312249   -0.865581
     19          1           0       -9.966146    0.528832   -1.536035
     20          1           0      -10.417748   -0.158739    0.025057
     21          1           0      -10.167353   -1.215949   -1.356060
     22          8           0       -9.333179    2.628014   -2.951057
     23          8           0       -9.955661    3.769356   -3.063983
     24          1           0      -10.565873    3.668183   -3.813885
 ---------------------------------------------------------------------
                    Distance matrix (angstroms):
                    1          2          3          4          5
     1  C    0.000000
     2  C    1.367743   0.000000
     3  C    1.419779   2.399252   0.000000
     4  C    2.425696   2.785948   1.363595   0.000000
     5  H    2.162180   3.373348   1.083477   2.122588   0.000000
     6  C    2.430496   1.417799   2.792346   2.436612   3.875773
     7  H    2.125128   1.083467   3.387915   3.869404   4.274318
     8  C    2.824940   2.445486   2.417734   1.417579   3.400427
     9  H    3.410671   3.868476   2.129403   1.082528   2.454535
    10  C    3.730082   2.478268   4.208597   3.727811   5.292065
    11  C    4.850084   3.723449   5.032895   4.217545   6.092219
    12  H    4.057763   2.694684   4.830876   4.587608   5.896507
    13  C    5.058961   4.222308   4.836116   3.725456   5.802478
    14  H    5.812439   4.600714   6.089624   5.299136   7.156282
    15  C    4.240248   3.735272   3.722443   2.482235   4.601773
    16  H    4.869711   4.599015   4.064158   2.707104   4.761734
    17  H    6.116987   5.303399   5.802649   4.605858   6.719938
    18  C    1.503157   2.507525   2.526124   3.787702   2.708461
    19  H    2.148291   2.622672   3.428735   4.568655   3.756407
    20  H    2.146218   3.160695   2.894568   4.162234   2.874948
    21  H    2.151631   3.282926   2.771556   4.086265   2.636690
    22  O    4.048571   3.540621   5.457417   6.235972   6.081624
    23  O    5.183367   4.673474   6.603126   7.398328   7.192946
    24  H    5.724175   5.346416   7.131892   8.007292   7.637504
                    6          7          8          9         10
     6  C    0.000000
     7  H    2.158907   0.000000
     8  C    1.417441   3.420895   0.000000
     9  H    3.413080   4.951930   2.157022   0.000000
    10  C    1.416449   2.699902   2.439845   4.592866   0.000000
    11  C    2.419616   4.060530   2.800387   4.847205   1.366508
    12  H    2.154071   2.462522   3.413883   5.530559   1.082277
    13  C    2.804726   4.849049   2.418415   4.065434   2.411101
    14  H    3.401156   4.755671   3.881930   5.911805   2.125294
    15  C    2.442706   4.598424   1.415641   2.705339   2.789994
    16  H    3.418137   5.539852   2.156867   2.478316   3.872525
    17  H    3.885762   5.912095   3.400887   4.765507   3.383034
    18  C    3.819169   2.715712   4.327600   4.655009   4.985447
    19  H    4.037152   2.378221   4.843519   5.522743   4.975916
    20  H    4.396826   3.371273   4.806964   4.936377   5.567801
    21  H    4.496811   3.564322   4.825205   4.815384   5.717579
    22  O    4.663547   2.548007   5.931872   7.301673   4.889304
    23  O    5.752592   3.640819   7.061122   8.467941   5.835827
    24  H    6.483220   4.356509   7.755539   9.061581   6.625007
                   11         12         13         14         15
    11  C    0.000000
    12  H    2.133160   0.000000
    13  C    1.412893   3.399212   0.000000
    14  H    1.081592   2.461055   2.162727   0.000000
    15  C    2.409426   3.872247   1.366555   3.382665   0.000000
    16  H    3.396589   4.954767   2.130721   4.282776   1.082539
    17  H    2.161789   4.284385   1.081112   2.481461   2.126961
    18  C    6.210541   5.080258   6.534515   7.108012   5.743058
    19  H    6.293957   4.838422   6.837606   7.082568   6.231502
    20  H    6.759854   5.677303   7.032503   7.662478   6.196776
    21  H    6.890498   5.870129   7.108457   7.817467   6.219892
    22  O    6.221444   4.216579   7.218465   6.663733   7.095387
    23  O    7.132383   5.038769   8.221169   7.458456   8.188153
    24  H    7.926677   5.846581   8.994055   8.261517   8.918014
                   16         17         18         19         20
    16  H    0.000000
    17  H    2.459923   0.000000
    18  C    6.346680   7.600901   0.000000
    19  H    6.959683   7.918302   1.087440   0.000000
    20  H    6.738565   8.081620   1.091266   1.764569   0.000000
    21  H    6.719573   8.153066   1.089824   1.765541   1.757235
    22  O    8.047499   8.242538   3.635664   2.609502   4.218949
    23  O    9.165267   9.218788   4.638408   3.582700   5.018528
    24  H    9.874774   9.998648   5.011340   3.924768   5.422614
                   21         22         23         24
    21  H    0.000000
    22  O    4.244515   0.000000
    23  O    5.274001   1.304952   0.000000
    24  H    5.482196   1.829196   0.972084   0.000000
 Stoichiometry    C11H11O2(2)
 Framework group  C1[X(C11H11O2)]
 Deg. of freedom    66
 Full point group                 C1      NOp   1
 Largest Abelian subgroup         C1      NOp   1
 Largest concise Abelian subgroup C1      NOp   1
                         Standard orientation:                         
 ---------------------------------------------------------------------
 Center     Atomic      Atomic             Coordinates (Angstroms)
 Number     Number       Type             X           Y           Z
 ---------------------------------------------------------------------
      1          6           0        0.687992    1.552530    0.037078
      2          6           0        0.498035    0.198225    0.059287
      3          6           0       -0.448701    2.401411   -0.018633
      4          6           0       -1.712598    1.890371   -0.046787
      5          1           0       -0.299738    3.474400   -0.039251
      6          6           0       -0.801479   -0.368086    0.032670
      7          1           0        1.354214   -0.464478    0.100302
      8          6           0       -1.928734    0.489622   -0.019992
      9          1           0       -2.571926    2.547355   -0.089149
     10          6           0       -1.009273   -1.768965    0.058898
     11          6           0       -2.272756   -2.288992    0.035920
     12          1           0       -0.144417   -2.418477    0.097386
     13          6           0       -3.395692   -1.433071   -0.015885
     14          1           0       -2.417621   -3.360639    0.056560
     15          6           0       -3.225620   -0.077431   -0.043987
     16          1           0       -4.082672    0.582753   -0.082858
     17          1           0       -4.389914   -1.857390   -0.032583
     18          6           0        2.063252    2.157018    0.089363
     19          1           0        2.829210    1.395872   -0.039060
     20          1           0        2.230457    2.649753    1.048589
     21          1           0        2.192255    2.908805   -0.689027
     22          8           0        3.801963   -1.004574   -0.357039
     23          8           0        4.820638   -1.570140    0.230614
     24          1           0        5.592797   -1.376027   -0.327094
 ---------------------------------------------------------------------
 Rotational constants (GHZ):           1.1317002           0.4227654           0.3096390
 Standard basis: 6-311+G(2df,2p) (5D, 7F)
 There are   606 symmetry adapted cartesian basis functions of A   symmetry.
 There are   541 symmetry adapted basis functions of A   symmetry.
   541 basis functions,   797 primitive gaussians,   606 cartesian basis functions
    47 alpha electrons       46 beta electrons
       nuclear repulsion energy       698.9975413058 Hartrees.
 NAtoms=   24 NActive=   24 NUniq=   24 SFac= 1.00D+00 NAtFMM=   60 NAOKFM=F Big=F
 Integral buffers will be    131072 words long.
 Raffenetti 2 integral format.
 Two-electron integral symmetry is turned on.
 One-electron integrals computed using PRISM.
 NBasis=   541 RedAO= T EigKep=  1.07D-06  NBF=   541
 NBsUse=   539 1.00D-06 EigRej=  5.54D-07 NBFU=   539
 Initial guess from the checkpoint file:  "/scratch/dinius.ab/QMscratch/Gau-46685.chk"
 B after Tr=     0.000000    0.000000    0.000000
         Rot=    1.000000    0.000016    0.000011   -0.000474 Ang=   0.05 deg.
 Initial guess <Sx>= 0.0000 <Sy>= 0.0000 <Sz>= 0.5000 <S**2>= 0.7550 S= 0.5025
 Requested convergence on RMS density matrix=1.00D-08 within 128 cycles.
 Requested convergence on MAX density matrix=1.00D-06.
 Requested convergence on             energy=1.00D-06.
 No special actions if energy rises.
