 Entering Gaussian System, Link 0=g16
 Input=rxn921.com
 Output=rxn921.log
 Initial command:
 /shared/centos7/gaussian/g16/l1.exe "/scratch/dinius.ab/QMscratch/Gau-44163.inp" -scrdir="/scratch/dinius.ab/QMscratch/"
 Entering Link 1 = /shared/centos7/gaussian/g16/l1.exe PID=     44164.
  
 Copyright (c) 1988,1990,1992,1993,1995,1998,2003,2009,2016,
            Gaussian, Inc.  All Rights Reserved.
  
 This is part of the Gaussian(R) 16 program.  It is based on
 the Gaussian(R) 09 system (copyright 2009, Gaussian, Inc.),
 the Gaussian(R) 03 system (copyright 2003, Gaussian, Inc.),
 the Gaussian(R) 98 system (copyright 1998, Gaussian, Inc.),
 the Gaussian(R) 94 system (copyright 1995, Gaussian, Inc.),
 the Gaussian 92(TM) system (copyright 1992, Gaussian, Inc.),
 the Gaussian 90(TM) system (copyright 1990, Gaussian, Inc.),
 the Gaussian 88(TM) system (copyright 1988, Gaussian, Inc.),
 the Gaussian 86(TM) system (copyright 1986, Carnegie Mellon
 University), and the Gaussian 82(TM) system (copyright 1983,
 Carnegie Mellon University). Gaussian is a federally registered
 trademark of Gaussian, Inc.
  
 This software contains proprietary and confidential information,
 including trade secrets, belonging to Gaussian, Inc.
  
 This software is provided under written license and may be
 used, copied, transmitted, or stored only in accord with that
 written license.
  
 The following legend is applicable only to US Government
 contracts under FAR:
  
                    RESTRICTED RIGHTS LEGEND
  
 Use, reproduction and disclosure by the US Government is
 subject to restrictions as set forth in subparagraphs (a)
 and (c) of the Commercial Computer Software - Restricted
 Rights clause in FAR 52.227-19.
  
 Gaussian, Inc.
 340 Quinnipiac St., Bldg. 40, Wallingford CT 06492
  
  
 ---------------------------------------------------------------
 Warning -- This program may not be used in any manner that
 competes with the business of Gaussian, Inc. or will provide
 assistance to any competitor of Gaussian, Inc.  The licensee
 of this program is prohibited from giving any competitor of
 Gaussian, Inc. access to this program.  By using this program,
 the user acknowledges that Gaussian, Inc. is engaged in the
 business of creating and licensing software in the field of
 computational chemistry and represents and warrants to the
 licensee that it is not a competitor of Gaussian, Inc. and that
 it will not use this program in any manner prohibited above.
 ---------------------------------------------------------------
  

 Cite this work as:
 Gaussian 16, Revision A.03,
 M. J. Frisch, G. W. Trucks, H. B. Schlegel, G. E. Scuseria, 
 M. A. Robb, J. R. Cheeseman, G. Scalmani, V. Barone, 
 G. A. Petersson, H. Nakatsuji, X. Li, M. Caricato, A. V. Marenich, 
 J. Bloino, B. G. Janesko, R. Gomperts, B. Mennucci, H. P. Hratchian, 
 J. V. Ortiz, A. F. Izmaylov, J. L. Sonnenberg, D. Williams-Young, 
 F. Ding, F. Lipparini, F. Egidi, J. Goings, B. Peng, A. Petrone, 
 T. Henderson, D. Ranasinghe, V. G. Zakrzewski, J. Gao, N. Rega, 
 G. Zheng, W. Liang, M. Hada, M. Ehara, K. Toyota, R. Fukuda, 
 J. Hasegawa, M. Ishida, T. Nakajima, Y. Honda, O. Kitao, H. Nakai, 
 T. Vreven, K. Throssell, J. A. Montgomery, Jr., J. E. Peralta, 
 F. Ogliaro, M. J. Bearpark, J. J. Heyd, E. N. Brothers, K. N. Kudin, 
 V. N. Staroverov, T. A. Keith, R. Kobayashi, J. Normand, 
 K. Raghavachari, A. P. Rendell, J. C. Burant, S. S. Iyengar, 
 J. Tomasi, M. Cossi, J. M. Millam, M. Klene, C. Adamo, R. Cammi, 
 J. W. Ochterski, R. L. Martin, K. Morokuma, O. Farkas, 
 J. B. Foresman, and D. J. Fox, Gaussian, Inc., Wallingford CT, 2016.
 
 ******************************************
 Gaussian 16:  EM64L-G16RevA.03 25-Dec-2016
                29-Oct-2018 
 ******************************************
 ----------------------------------------------------------------------
 #m062x/6-311+g(2df,2p) Opt=(ModRedun,Loose,maxcycle=1000) Int(Grid=SG1
 ) freq
 ----------------------------------------------------------------------
 1/6=1000,7=-1,18=120,19=15,26=2,38=1/1,3;
 2/9=110,12=2,17=6,18=5,40=1/2;
 3/5=4,6=6,7=214,11=2,25=1,30=1,71=1,74=-55,75=1/1,2,3;
 4//1;
 5/5=2,38=5/2;
 6/7=2,8=2,9=2,10=2,28=1/1;
 7//1,2,3,16;
 1/6=1000,7=-1,18=20,19=15,26=2/3(2);
 2/9=110/2;
 99//99;
 2/9=110/2;
 3/5=4,6=6,7=214,11=2,25=1,30=1,71=1,74=-55,75=1/1,2,3;
 4/5=5,16=3,69=1/1;
 5/5=2,38=5/2;
 7//1,2,3,16;
 1/6=1000,7=-1,18=20,19=15,26=2/3(-5);
 2/9=110/2;
 6/7=2,8=2,9=2,10=2,19=2,28=1/1;
 99/9=1/99;
 -----
 Title
 -----
 Symbolic Z-matrix:
 Charge =  0 Multiplicity = 2
 C                    -9.17308   1.114    -0.29385 
 C                    -8.7153    0.23116   0.68107 
 C                    -8.28201   1.98777  -0.91159 
 H                    -10.2237   1.11878  -0.57416 
 C                    -6.93504   1.97996  -0.55364 
 C                    -6.46818   1.10387   0.43194 
 C                    -7.36905   0.22538   1.04198 
 H                    -9.40861  -0.45532   1.16091 
 H                    -8.63684   2.67553  -1.67532 
 H                    -6.24936   2.66274  -1.05011 
 H                    -7.0289   -0.47362   1.80236 
 C                    -4.99043   1.09221   0.81766 
 C                    -4.47599   2.50624   1.06589 
 C                    -4.19018   0.37191  -0.25883 
 H                    -4.85306   0.52805   1.75177 
 C                    -3.5165    3.09164   0.39088 
 H                    -4.94577   3.03216   1.89359 
 C                    -3.1886    0.9221   -0.93678 
 H                    -4.48061  -0.65616  -0.46201 
 C                    -2.8248    2.3273   -0.62025 
 H                    -2.03113   2.90355  -1.08953 
 H                    -2.65131   0.36078  -1.6973 
 O                    -4.55687   0.09174   2.72412 
 O                    -4.65791   0.24927   4.18255 
 H                    -3.85109   0.77363   4.34094 
 
 The following ModRedundant input section has been read:
 

 GradGradGradGradGradGradGradGradGradGradGradGradGradGradGradGradGradGrad
 Berny optimization.
 Initialization pass.
                           ----------------------------
                           !    Initial Parameters    !
                           ! (Angstroms and Degrees)  !
 --------------------------                            --------------------------
 ! Name  Definition              Value          Derivative Info.                !
 --------------------------------------------------------------------------------
 ! R1    R(1,2)                  1.3926         estimate D2E/DX2                !
 ! R2    R(1,3)                  1.3925         estimate D2E/DX2                !
 ! R3    R(1,4)                  1.0874         estimate D2E/DX2                !
 ! R4    R(2,7)                  1.3938         estimate D2E/DX2                !
 ! R5    R(2,8)                  1.0873         estimate D2E/DX2                !
 ! R6    R(3,5)                  1.3937         estimate D2E/DX2                !
 ! R7    R(3,9)                  1.0873         estimate D2E/DX2                !
 ! R8    R(5,6)                  1.3989         estimate D2E/DX2                !
 ! R9    R(5,10)                 1.0876         estimate D2E/DX2                !
 ! R10   R(6,7)                  1.3984         estimate D2E/DX2                !
 ! R11   R(6,12)                 1.5273         estimate D2E/DX2                !
 ! R12   R(7,11)                 1.0874         estimate D2E/DX2                !
 ! R13   R(12,13)                1.525          estimate D2E/DX2                !
 ! R14   R(12,14)                1.5225         estimate D2E/DX2                !
 ! R15   R(12,15)                1.0999         estimate D2E/DX2                !
 ! R16   R(13,16)                1.3111         estimate D2E/DX2                !
 ! R17   R(13,17)                1.0874         estimate D2E/DX2                !
 ! R18   R(14,18)                1.3287         estimate D2E/DX2                !
 ! R19   R(14,19)                1.0875         estimate D2E/DX2                !
 ! R20   R(15,23)                1.1061         estimate D2E/DX2                !
 ! R21   R(16,20)                1.444          estimate D2E/DX2                !
 ! R22   R(18,20)                1.4856         estimate D2E/DX2                !
 ! R23   R(18,22)                1.0873         estimate D2E/DX2                !
 ! R24   R(20,21)                1.0873         estimate D2E/DX2                !
 ! R25   R(23,24)                1.4704         estimate D2E/DX2                !
 ! R26   R(24,25)                0.9752         estimate D2E/DX2                !
 ! A1    A(2,1,3)              119.8671         estimate D2E/DX2                !
 ! A2    A(2,1,4)              120.0563         estimate D2E/DX2                !
 ! A3    A(3,1,4)              120.0763         estimate D2E/DX2                !
 ! A4    A(1,2,7)              120.0927         estimate D2E/DX2                !
 ! A5    A(1,2,8)              119.9729         estimate D2E/DX2                !
 ! A6    A(7,2,8)              119.9343         estimate D2E/DX2                !
 ! A7    A(1,3,5)              120.0648         estimate D2E/DX2                !
 ! A8    A(1,3,9)              119.9791         estimate D2E/DX2                !
 ! A9    A(5,3,9)              119.956          estimate D2E/DX2                !
 ! A10   A(3,5,6)              120.4639         estimate D2E/DX2                !
 ! A11   A(3,5,10)             119.2453         estimate D2E/DX2                !
 ! A12   A(6,5,10)             120.2907         estimate D2E/DX2                !
 ! A13   A(5,6,7)              119.0648         estimate D2E/DX2                !
 ! A14   A(5,6,12)             120.3729         estimate D2E/DX2                !
 ! A15   A(7,6,12)             120.5541         estimate D2E/DX2                !
 ! A16   A(2,7,6)              120.4429         estimate D2E/DX2                !
 ! A17   A(2,7,11)             119.069          estimate D2E/DX2                !
 ! A18   A(6,7,11)             120.4878         estimate D2E/DX2                !
 ! A19   A(6,12,13)            111.1255         estimate D2E/DX2                !
 ! A20   A(6,12,14)            109.4876         estimate D2E/DX2                !
 ! A21   A(6,12,15)            109.8311         estimate D2E/DX2                !
 ! A22   A(13,12,14)           112.1135         estimate D2E/DX2                !
 ! A23   A(13,12,15)           107.1711         estimate D2E/DX2                !
 ! A24   A(14,12,15)           106.9881         estimate D2E/DX2                !
 ! A25   A(12,13,16)           125.2442         estimate D2E/DX2                !
 ! A26   A(12,13,17)           115.2531         estimate D2E/DX2                !
 ! A27   A(16,13,17)           119.4799         estimate D2E/DX2                !
 ! A28   A(12,14,18)           124.129          estimate D2E/DX2                !
 ! A29   A(12,14,19)           116.0395         estimate D2E/DX2                !
 ! A30   A(18,14,19)           119.8315         estimate D2E/DX2                !
 ! A31   A(13,16,20)           118.3422         estimate D2E/DX2                !
 ! A32   A(14,18,20)           117.8743         estimate D2E/DX2                !
 ! A33   A(14,18,22)           121.0389         estimate D2E/DX2                !
 ! A34   A(20,18,22)           121.0866         estimate D2E/DX2                !
 ! A35   A(16,20,18)           122.1787         estimate D2E/DX2                !
 ! A36   A(16,20,21)           111.7993         estimate D2E/DX2                !
 ! A37   A(18,20,21)           126.021          estimate D2E/DX2                !
 ! A38   A(15,23,24)           144.2168         estimate D2E/DX2                !
 ! A39   A(23,24,25)            99.3144         estimate D2E/DX2                !
 ! A40   L(12,15,23,8,-1)      189.7929         estimate D2E/DX2                !
 ! A41   L(12,15,23,8,-2)      184.6264         estimate D2E/DX2                !
 ! D1    D(3,1,2,7)              0.2546         estimate D2E/DX2                !
 ! D2    D(3,1,2,8)           -179.6894         estimate D2E/DX2                !
 ! D3    D(4,1,2,7)           -179.9309         estimate D2E/DX2                !
 ! D4    D(4,1,2,8)              0.1251         estimate D2E/DX2                !
 ! D5    D(2,1,3,5)             -0.0831         estimate D2E/DX2                !
 ! D6    D(2,1,3,9)            179.7982         estimate D2E/DX2                !
 ! D7    D(4,1,3,5)           -179.8975         estimate D2E/DX2                !
 ! D8    D(4,1,3,9)             -0.0162         estimate D2E/DX2                !
 ! D9    D(1,2,7,6)              0.0698         estimate D2E/DX2                !
 ! D10   D(1,2,7,11)          -179.76           estimate D2E/DX2                !
 ! D11   D(8,2,7,6)           -179.9862         estimate D2E/DX2                !
 ! D12   D(8,2,7,11)             0.1841         estimate D2E/DX2                !
 ! D13   D(1,3,5,6)             -0.4145         estimate D2E/DX2                !
 ! D14   D(1,3,5,10)           179.5321         estimate D2E/DX2                !
 ! D15   D(9,3,5,6)            179.7041         estimate D2E/DX2                !
 ! D16   D(9,3,5,10)            -0.3492         estimate D2E/DX2                !
 ! D17   D(3,5,6,7)              0.7306         estimate D2E/DX2                !
 ! D18   D(3,5,6,12)           179.6946         estimate D2E/DX2                !
 ! D19   D(10,5,6,7)          -179.2155         estimate D2E/DX2                !
 ! D20   D(10,5,6,12)           -0.2515         estimate D2E/DX2                !
 ! D21   D(5,6,7,2)             -0.5583         estimate D2E/DX2                !
 ! D22   D(5,6,7,11)           179.269          estimate D2E/DX2                !
 ! D23   D(12,6,7,2)          -179.5204         estimate D2E/DX2                !
 ! D24   D(12,6,7,11)            0.3069         estimate D2E/DX2                !
 ! D25   D(5,6,12,13)           48.2705         estimate D2E/DX2                !
 ! D26   D(5,6,12,14)          -76.1192         estimate D2E/DX2                !
 ! D27   D(5,6,12,15)          166.6814         estimate D2E/DX2                !
 ! D28   D(7,6,12,13)         -132.7811         estimate D2E/DX2                !
 ! D29   D(7,6,12,14)          102.8292         estimate D2E/DX2                !
 ! D30   D(7,6,12,15)          -14.3701         estimate D2E/DX2                !
 ! D31   D(6,12,13,16)        -118.7711         estimate D2E/DX2                !
 ! D32   D(6,12,13,17)          62.9833         estimate D2E/DX2                !
 ! D33   D(14,12,13,16)          4.1194         estimate D2E/DX2                !
 ! D34   D(14,12,13,17)       -174.1263         estimate D2E/DX2                !
 ! D35   D(15,12,13,16)        121.2256         estimate D2E/DX2                !
 ! D36   D(15,12,13,17)        -57.02           estimate D2E/DX2                !
 ! D37   D(6,12,14,18)         121.708          estimate D2E/DX2                !
 ! D38   D(6,12,14,19)         -58.3207         estimate D2E/DX2                !
 ! D39   D(13,12,14,18)         -2.1034         estimate D2E/DX2                !
 ! D40   D(13,12,14,19)        177.8679         estimate D2E/DX2                !
 ! D41   D(15,12,14,18)       -119.3193         estimate D2E/DX2                !
 ! D42   D(15,12,14,19)         60.6521         estimate D2E/DX2                !
 ! D43   D(6,12,23,24)         -74.4149         estimate D2E/DX2                !
 ! D44   D(13,12,23,24)         45.9234         estimate D2E/DX2                !
 ! D45   D(14,12,23,24)        164.0204         estimate D2E/DX2                !
 ! D46   D(12,13,16,20)         -3.8917         estimate D2E/DX2                !
 ! D47   D(17,13,16,20)        174.2856         estimate D2E/DX2                !
 ! D48   D(12,14,18,20)          0.2119         estimate D2E/DX2                !
 ! D49   D(12,14,18,22)       -179.9176         estimate D2E/DX2                !
 ! D50   D(19,14,18,20)       -179.7584         estimate D2E/DX2                !
 ! D51   D(19,14,18,22)          0.1121         estimate D2E/DX2                !
 ! D52   D(13,16,20,18)          1.5358         estimate D2E/DX2                !
 ! D53   D(13,16,20,21)       -178.1235         estimate D2E/DX2                !
 ! D54   D(14,18,20,16)          0.2808         estimate D2E/DX2                !
 ! D55   D(14,18,20,21)        179.8896         estimate D2E/DX2                !
 ! D56   D(22,18,20,16)       -179.5896         estimate D2E/DX2                !
 ! D57   D(22,18,20,21)          0.0192         estimate D2E/DX2                !
 ! D58   D(15,23,24,25)        -92.0776         estimate D2E/DX2                !
 --------------------------------------------------------------------------------
 Trust Radius=3.00D-01 FncErr=1.00D-05 GrdErr=1.00D-04 EigMax=2.50D+02 EigMin=1.00D-04
 Number of steps in this run=    150 maximum allowed number of steps=    150.
 GradGradGradGradGradGradGradGradGradGradGradGradGradGradGradGradGradGrad

                          Input orientation:                          
 ---------------------------------------------------------------------
 Center     Atomic      Atomic             Coordinates (Angstroms)
 Number     Number       Type             X           Y           Z
 ---------------------------------------------------------------------
      1          6           0       -9.173080    1.114000   -0.293850
      2          6           0       -8.715300    0.231160    0.681070
      3          6           0       -8.282010    1.987770   -0.911590
      4          1           0      -10.223700    1.118780   -0.574160
      5          6           0       -6.935040    1.979960   -0.553640
      6          6           0       -6.468180    1.103870    0.431940
      7          6           0       -7.369050    0.225380    1.041980
      8          1           0       -9.408610   -0.455320    1.160910
      9          1           0       -8.636840    2.675530   -1.675320
     10          1           0       -6.249360    2.662740   -1.050110
     11          1           0       -7.028900   -0.473620    1.802360
     12          6           0       -4.990430    1.092210    0.817660
     13          6           0       -4.475990    2.506240    1.065890
     14          6           0       -4.190180    0.371910   -0.258830
     15          1           0       -4.853060    0.528050    1.751770
     16          6           0       -3.516500    3.091640    0.390880
     17          1           0       -4.945770    3.032160    1.893590
     18          6           0       -3.188600    0.922100   -0.936780
     19          1           0       -4.480610   -0.656160   -0.462010
     20          6           0       -2.824800    2.327300   -0.620250
     21          1           0       -2.031130    2.903550   -1.089530
     22          1           0       -2.651310    0.360780   -1.697300
     23          8           0       -4.556870    0.091740    2.724120
     24          8           0       -4.657910    0.249270    4.182550
     25          1           0       -3.851090    0.773630    4.340940
 ---------------------------------------------------------------------
                    Distance matrix (angstroms):
                    1          2          3          4          5
     1  C    0.000000
     2  C    1.392637   0.000000
     3  C    1.392509   2.410391   0.000000
     4  H    1.087382   2.153774   2.153872   0.000000
     5  C    2.413752   2.784266   1.393742   3.399608   0.000000
     6  C    2.800600   2.423476   2.424115   3.887980   1.398878
     7  C    2.414252   1.393800   2.784951   3.399867   2.411000
     8  H    2.152804   1.087281   3.396052   2.480450   3.871540
     9  H    2.152763   3.396126   1.087291   2.480756   2.153626
    10  H    3.393916   3.871747   2.146261   4.290189   1.087579
    11  H    3.392955   2.144283   3.872241   4.288395   3.402881
    12  C    4.327874   3.825535   3.824504   5.415255   2.539699
    13  C    5.084278   4.826575   4.320304   6.136039   2.991116
    14  C    5.037977   4.623844   4.447491   6.087743   3.194839
    15  H    4.815649   4.018885   4.580608   5.882405   3.428935
    16  C    6.031319   5.940882   5.062118   7.057621   3.716768
    17  H    5.131704   4.850274   4.482218   6.132484   3.324644
    18  C    6.021975   5.799935   5.203759   7.047184   3.911736
    19  H    5.018069   4.475105   4.652218   6.012160   3.603020
    20  C    6.471421   6.386331   5.475518   7.497091   4.125428
    21  H    7.405609   7.413152   6.320112   8.400548   5.018818
    22  H    6.713456   6.515015   5.913478   7.692665   4.720174
    23  O    5.609149   4.635303   5.539854   6.636748   4.468196
    24  O    6.416594   5.359394   6.488971   7.372948   5.532821
    25  H    7.065459   6.111421   6.978271   8.055277   5.909559
                    6          7          8          9         10
     6  C    0.000000
     7  C    1.398378   0.000000
     8  H    3.407139   2.153440   0.000000
     9  H    3.407895   3.872240   4.294421   0.000000
    10  H    2.162043   3.401657   4.959009   2.468018   0.000000
    11  H    2.163546   1.087419   2.464714   4.959524   4.310571
    12  C    1.527305   2.541564   4.693931   4.692351   2.745912
    13  C    2.517410   3.684113   5.754182   4.985535   2.765283
    14  C    2.490424   3.437847   5.471013   5.204411   3.180291
    15  H    2.163824   2.631657   4.697783   5.538376   3.789075
    16  C    3.558838   4.845773   6.920320   5.537166   3.119123
    17  H    2.858751   3.804673   5.711066   5.146679   3.240554
    18  C    3.558382   4.677293   6.707169   5.770899   3.522914
    19  H    2.801301   3.373749   5.192243   5.463198   3.806499
    20  C    3.984734   5.275536   7.366279   5.917284   3.467695
    21  H    5.024055   6.341082   8.412711   6.635552   4.225282
    22  H    4.433322   5.457019   7.382174   6.417563   4.320166
    23  O    3.151444   3.279605   5.126625   6.532779   4.870254
    24  O    4.251411   4.148979   5.674144   7.485537   5.978150
    25  H    4.715771   4.853839   6.519888   7.919344   6.195471
                   11         12         13         14         15
    11  H    0.000000
    12  C    2.752602   0.000000
    13  C    3.992406   1.525040   0.000000
    14  C    3.608567   1.522519   2.528228   0.000000
    15  H    2.395868   1.099867   2.127404   2.122805   0.000000
    16  C    5.200030   2.520383   1.311088   2.876265   3.195373
    17  H    4.079001   2.218789   1.087369   3.504391   2.509836
    18  C    4.919230   2.520633   2.859643   1.328717   3.186535
    19  H    3.413865   2.225819   3.512161   1.087456   2.538089
    20  C    5.602557   2.878018   2.366752   2.412144   3.602446
    21  H    6.689246   3.959265   3.283448   3.429397   4.656101
    22  H    5.666316   3.511623   3.945589   2.106523   4.095335
    23  O    2.698186   2.196248   2.930201   3.018435   1.106146
    24  O    3.436491   3.484767   3.852347   4.467624   2.454484
    25  H    4.254233   3.716597   3.757445   4.629713   2.787123
                   16         17         18         19         20
    16  C    0.000000
    17  H    2.074726   0.000000
    18  C    2.564586   3.943475   0.000000
    19  H    3.962693   4.401015   2.094183   0.000000
    20  C    1.443970   3.363738   1.485641   3.415813   0.000000
    21  H    2.105544   4.172610   2.299829   4.366379   1.087290
    22  H    3.544947   5.029444   1.087268   2.430318   2.248852
    23  O    3.940276   3.080113   3.995479   3.273621   4.379795
    24  O    4.874284   3.614786   5.368343   4.735312   5.544852
    25  H    4.592178   3.505539   5.321209   5.050636   5.299110
                   21         22         23         24         25
    21  H    0.000000
    22  H    2.686948   0.000000
    23  O    5.369317   4.822084   0.000000
    24  O    6.460650   6.213816   1.470389   0.000000
    25  H    6.110550   6.170110   1.891350   0.975192   0.000000
 Stoichiometry    C12H11O2(2)
 Framework group  C1[X(C12H11O2)]
 Deg. of freedom    69
 Full point group                 C1      NOp   1
 Largest Abelian subgroup         C1      NOp   1
 Largest concise Abelian subgroup C1      NOp   1
                         Standard orientation:                         
 ---------------------------------------------------------------------
 Center     Atomic      Atomic             Coordinates (Angstroms)
 Number     Number       Type             X           Y           Z
 ---------------------------------------------------------------------
      1          6           0       -3.640519   -0.299893   -0.087873
      2          6           0       -3.067697    0.880167    0.379858
      3          6           0       -2.825174   -1.355222   -0.488591
      4          1           0       -4.722349   -0.397943   -0.137155
      5          6           0       -1.438599   -1.230069   -0.423312
      6          6           0       -0.854293   -0.044719    0.035374
      7          6           0       -1.681089    1.007198    0.441995
      8          1           0       -3.702745    1.703402    0.697942
      9          1           0       -3.270500   -2.278568   -0.850971
     10          1           0       -0.814561   -2.065436   -0.732449
     11          1           0       -1.251620    1.934515    0.813641
     12          6           0        0.665300    0.087679    0.112619
     13          6           0        1.323628   -0.371090   -1.184255
     14          6           0        1.181420   -0.681758    1.320779
     15          1           0        0.940899    1.142014    0.261388
     16          6           0        2.172848   -1.364200   -1.291546
     17          1           0        1.066940    0.211124   -2.066021
     18          6           0        2.068552   -1.668602    1.252774
     19          1           0        0.780031   -0.380717    2.285569
     20          6           0        2.592399   -2.040590   -0.086755
     21          1           0        3.319322   -2.821974   -0.294649
     22          1           0        2.401786   -2.185651    2.149304
     23          8           0        1.388914    2.152494    0.303475
     24          8           0        1.589048    3.400793   -0.447351
     25          1           0        2.448445    3.199530   -0.861994
 ---------------------------------------------------------------------
 Rotational constants (GHZ):           0.8651039           0.5484627           0.3920509
 Standard basis: 6-311+G(2df,2p) (5D, 7F)
 There are   645 symmetry adapted cartesian basis functions of A   symmetry.
 There are   575 symmetry adapted basis functions of A   symmetry.
   575 basis functions,   849 primitive gaussians,   645 cartesian basis functions
    50 alpha electrons       49 beta electrons
       nuclear repulsion energy       811.8668495717 Hartrees.
 NAtoms=   25 NActive=   25 NUniq=   25 SFac= 1.00D+00 NAtFMM=   60 NAOKFM=F Big=F
 Integral buffers will be    131072 words long.
 Raffenetti 2 integral format.
 Two-electron integral symmetry is turned on.
 One-electron integrals computed using PRISM.
 NBasis=   575 RedAO= T EigKep=  1.29D-06  NBF=   575
 NBsUse=   575 1.00D-06 EigRej= -1.00D+00 NBFU=   575
 ExpMin= 4.38D-02 ExpMax= 8.59D+03 ExpMxC= 1.30D+03 IAcc=2 IRadAn=         4 AccDes= 0.00D+00
 Harris functional with IExCor= 1009 and IRadAn=       4 diagonalized for initial guess.
 HarFok:  IExCor= 1009 AccDes= 0.00D+00 IRadAn=         4 IDoV= 1 UseB2=F ITyADJ=14
 ICtDFT=  3500011 ScaDFX=  1.000000  1.000000  1.000000  1.000000
 FoFCou: FMM=F IPFlag=           0 FMFlag=      100000 FMFlg1=           0
         NFxFlg=           0 DoJE=T BraDBF=F KetDBF=T FulRan=T
         wScrn=  0.000000 ICntrl=       500 IOpCl=  0 I1Cent=   200000004 NGrid=           0
         NMat0=    1 NMatS0=      1 NMatT0=    0 NMatD0=    1 NMtDS0=    0 NMtDT0=    0
 Petite list used in FoFCou.
 Initial guess <Sx>= 0.0000 <Sy>= 0.0000 <Sz>= 0.5000 <S**2>= 0.7500 S= 0.5000
 Requested convergence on RMS density matrix=1.00D-08 within 128 cycles.
 Requested convergence on MAX density matrix=1.00D-06.
 Requested convergence on             energy=1.00D-06.
 No special actions if energy rises.
 Restarting incremental Fock formation.
 SCF Done:  E(UM062X) =  -613.928678991     A.U. after   27 cycles
            NFock= 27  Conv=0.58D-08     -V/T= 2.0041
 <Sx>= 0.0000 <Sy>= 0.0000 <Sz>= 0.5000 <S**2>= 0.7720 S= 0.5109
 <L.S>= 0.000000000000E+00
 Annihilation of the first spin contaminant:
 S**2 before annihilation     0.7720,   after     0.7503

 **********************************************************************

            Population analysis using the SCF density.

 **********************************************************************

 Orbital symmetries:
 Alpha Orbitals:
       Occupied  (A) (A) (A) (A) (A) (A) (A) (A) (A) (A) (A) (A)
                 (A) (A) (A) (A) (A) (A) (A) (A) (A) (A) (A) (A)
                 (A) (A) (A) (A) (A) (A) (A) (A) (A) (A) (A) (A)
                 (A) (A) (A) (A) (A) (A) (A) (A) (A) (A) (A) (A)
                 (A) (A)
       Virtual   (A) (A) (A) (A) (A) (A) (A) (A) (A) (A) (A) (A)
                 (A) (A) (A) (A) (A) (A) (A) (A) (A) (A) (A) (A)
                 (A) (A) (A) (A) (A) (A) (A) (A) (A) (A) (A) (A)
                 (A) (A) (A) (A) (A) (A) (A) (A) (A) (A) (A) (A)
                 (A) (A) (A) (A) (A) (A) (A) (A) (A) (A) (A) (A)
                 (A) (A) (A) (A) (A) (A) (A) (A) (A) (A) (A) (A)
                 (A) (A) (A) (A) (A) (A) (A) (A) (A) (A) (A) (A)
                 (A) (A) (A) (A) (A) (A) (A) (A) (A) (A) (A) (A)
                 (A) (A) (A) (A) (A) (A) (A) (A) (A) (A) (A) (A)
                 (A) (A) (A) (A) (A) (A) (A) (A) (A) (A) (A) (A)
                 (A) (A) (A) (A) (A) (A) (A) (A) (A) (A) (A) (A)
                 (A) (A) (A) (A) (A) (A) (A) (A) (A) (A) (A) (A)
                 (A) (A) (A) (A) (A) (A) (A) (A) (A) (A) (A) (A)
                 (A) (A) (A) (A) (A) (A) (A) (A) (A) (A) (A) (A)
                 (A) (A) (A) (A) (A) (A) (A) (A) (A) (A) (A) (A)
                 (A) (A) (A) (A) (A) (A) (A) (A) (A) (A) (A) (A)
                 (A) (A) (A) (A) (A) (A) (A) (A) (A) (A) (A) (A)
                 (A) (A) (A) (A) (A) (A) (A) (A) (A) (A) (A) (A)
                 (A) (A) (A) (A) (A) (A) (A) (A) (A) (A) (A) (A)
                 (A) (A) (A) (A) (A) (A) (A) (A) (A) (A) (A) (A)
                 (A) (A) (A) (A) (A) (A) (A) (A) (A) (A) (A) (A)
                 (A) (A) (A) (A) (A) (A) (A) (A) (A) (A) (A) (A)
                 (A) (A) (A) (A) (A) (A) (A) (A) (A) (A) (A) (A)
                 (A) (A) (A) (A) (A) (A) (A) (A) (A) (A) (A) (A)
                 (A) (A) (A) (A) (A) (A) (A) (A) (A) (A) (A) (A)
                 (A) (A) (A) (A) (A) (A) (A) (A) (A) (A) (A) (A)
                 (A) (A) (A) (A) (A) (A) (A) (A) (A) (A) (A) (A)
                 (A) (A) (A) (A) (A) (A) (A) (A) (A) (A) (A) (A)
                 (A) (A) (A) (A) (A) (A) (A) (A) (A) (A) (A) (A)
                 (A) (A) (A) (A) (A) (A) (A) (A) (A) (A) (A) (A)
                 (A) (A) (A) (A) (A) (A) (A) (A) (A) (A) (A) (A)
                 (A) (A) (A) (A) (A) (A) (A) (A) (A) (A) (A) (A)
                 (A) (A) (A) (A) (A) (A) (A) (A) (A) (A) (A) (A)
                 (A) (A) (A) (A) (A) (A) (A) (A) (A) (A) (A) (A)
                 (A) (A) (A) (A) (A) (A) (A) (A) (A) (A) (A) (A)
                 (A) (A) (A) (A) (A) (A) (A) (A) (A) (A) (A) (A)
                 (A) (A) (A) (A) (A) (A) (A) (A) (A) (A) (A) (A)
                 (A) (A) (A) (A) (A) (A) (A) (A) (A) (A) (A) (A)
                 (A) (A) (A) (A) (A) (A) (A) (A) (A) (A) (A) (A)
                 (A) (A) (A) (A) (A) (A) (A) (A) (A) (A) (A) (A)
                 (A) (A) (A) (A) (A) (A) (A) (A) (A) (A) (A) (A)
                 (A) (A) (A) (A) (A) (A) (A) (A) (A) (A) (A) (A)
                 (A) (A) (A) (A) (A) (A) (A) (A) (A) (A) (A) (A)
                 (A) (A) (A) (A) (A) (A) (A) (A) (A)
 Beta  Orbitals:
       Occupied  (A) (A) (A) (A) (A) (A) (A) (A) (A) (A) (A) (A)
                 (A) (A) (A) (A) (A) (A) (A) (A) (A) (A) (A) (A)
                 (A) (A) (A) (A) (A) (A) (A) (A) (A) (A) (A) (A)
                 (A) (A) (A) (A) (A) (A) (A) (A) (A) (A) (A) (A)
                 (A)
       Virtual   (A) (A) (A) (A) (A) (A) (A) (A) (A) (A) (A) (A)
                 (A) (A) (A) (A) (A) (A) (A) (A) (A) (A) (A) (A)
                 (A) (A) (A) (A) (A) (A) (A) (A) (A) (A) (A) (A)
                 (A) (A) (A) (A) (A) (A) (A) (A) (A) (A) (A) (A)
                 (A) (A) (A) (A) (A) (A) (A) (A) (A) (A) (A) (A)
                 (A) (A) (A) (A) (A) (A) (A) (A) (A) (A) (A) (A)
                 (A) (A) (A) (A) (A) (A) (A) (A) (A) (A) (A) (A)
                 (A) (A) (A) (A) (A) (A) (A) (A) (A) (A) (A) (A)
                 (A) (A) (A) (A) (A) (A) (A) (A) (A) (A) (A) (A)
                 (A) (A) (A) (A) (A) (A) (A) (A) (A) (A) (A) (A)
                 (A) (A) (A) (A) (A) (A) (A) (A) (A) (A) (A) (A)
                 (A) (A) (A) (A) (A) (A) (A) (A) (A) (A) (A) (A)
                 (A) (A) (A) (A) (A) (A) (A) (A) (A) (A) (A) (A)
                 (A) (A) (A) (A) (A) (A) (A) (A) (A) (A) (A) (A)
                 (A) (A) (A) (A) (A) (A) (A) (A) (A) (A) (A) (A)
                 (A) (A) (A) (A) (A) (A) (A) (A) (A) (A) (A) (A)
                 (A) (A) (A) (A) (A) (A) (A) (A) (A) (A) (A) (A)
                 (A) (A) (A) (A) (A) (A) (A) (A) (A) (A) (A) (A)
                 (A) (A) (A) (A) (A) (A) (A) (A) (A) (A) (A) (A)
                 (A) (A) (A) (A) (A) (A) (A) (A) (A) (A) (A) (A)
                 (A) (A) (A) (A) (A) (A) (A) (A) (A) (A) (A) (A)
                 (A) (A) (A) (A) (A) (A) (A) (A) (A) (A) (A) (A)
                 (A) (A) (A) (A) (A) (A) (A) (A) (A) (A) (A) (A)
                 (A) (A) (A) (A) (A) (A) (A) (A) (A) (A) (A) (A)
                 (A) (A) (A) (A) (A) (A) (A) (A) (A) (A) (A) (A)
                 (A) (A) (A) (A) (A) (A) (A) (A) (A) (A) (A) (A)
                 (A) (A) (A) (A) (A) (A) (A) (A) (A) (A) (A) (A)
                 (A) (A) (A) (A) (A) (A) (A) (A) (A) (A) (A) (A)
                 (A) (A) (A) (A) (A) (A) (A) (A) (A) (A) (A) (A)
                 (A) (A) (A) (A) (A) (A) (A) (A) (A) (A) (A) (A)
                 (A) (A) (A) (A) (A) (A) (A) (A) (A) (A) (A) (A)
                 (A) (A) (A) (A) (A) (A) (A) (A) (A) (A) (A) (A)
                 (A) (A) (A) (A) (A) (A) (A) (A) (A) (A) (A) (A)
                 (A) (A) (A) (A) (A) (A) (A) (A) (A) (A) (A) (A)
                 (A) (A) (A) (A) (A) (A) (A) (A) (A) (A) (A) (A)
                 (A) (A) (A) (A) (A) (A) (A) (A) (A) (A) (A) (A)
                 (A) (A) (A) (A) (A) (A) (A) (A) (A) (A) (A) (A)
                 (A) (A) (A) (A) (A) (A) (A) (A) (A) (A) (A) (A)
                 (A) (A) (A) (A) (A) (A) (A) (A) (A) (A) (A) (A)
                 (A) (A) (A) (A) (A) (A) (A) (A) (A) (A) (A) (A)
                 (A) (A) (A) (A) (A) (A) (A) (A) (A) (A) (A) (A)
                 (A) (A) (A) (A) (A) (A) (A) (A) (A) (A) (A) (A)
                 (A) (A) (A) (A) (A) (A) (A) (A) (A) (A) (A) (A)
                 (A) (A) (A) (A) (A) (A) (A) (A) (A) (A)
 The electronic state is 2-A.
 Alpha  occ. eigenvalues --  -19.65103 -19.60455 -10.61815 -10.59999 -10.58954
 Alpha  occ. eigenvalues --  -10.58848 -10.58599 -10.57699 -10.57239 -10.55326
 Alpha  occ. eigenvalues --  -10.55103 -10.54893 -10.54798 -10.54627  -1.17251
 Alpha  occ. eigenvalues --   -1.00297  -0.96584  -0.95829  -0.89410  -0.88372
 Alpha  occ. eigenvalues --   -0.84885  -0.82527  -0.74906  -0.69864  -0.69394
 Alpha  occ. eigenvalues --   -0.67600  -0.61767  -0.60607  -0.59385  -0.55555
 Alpha  occ. eigenvalues --   -0.54661  -0.53180  -0.52748  -0.50796  -0.49723
 Alpha  occ. eigenvalues --   -0.49107  -0.48150  -0.46231  -0.44792  -0.44038
 Alpha  occ. eigenvalues --   -0.43828  -0.41191  -0.40682  -0.37325  -0.36372
 Alpha  occ. eigenvalues --   -0.34049  -0.32630  -0.31446  -0.30762  -0.25978
 Alpha virt. eigenvalues --   -0.09938  -0.00826   0.00034   0.00794   0.01429
 Alpha virt. eigenvalues --    0.02130   0.02567   0.02868   0.02970   0.04032
 Alpha virt. eigenvalues --    0.04640   0.05011   0.05533   0.06087   0.06891
 Alpha virt. eigenvalues --    0.07378   0.07998   0.08437   0.08906   0.09725
 Alpha virt. eigenvalues --    0.09999   0.10529   0.10985   0.11867   0.12375
 Alpha virt. eigenvalues --    0.12703   0.13410   0.13829   0.14351   0.14966
 Alpha virt. eigenvalues --    0.15202   0.15785   0.16094   0.16590   0.17175
 Alpha virt. eigenvalues --    0.17275   0.18062   0.18387   0.18652   0.19049
 Alpha virt. eigenvalues --    0.19283   0.19850   0.20346   0.20604   0.20947
 Alpha virt. eigenvalues --    0.21317   0.21358   0.21679   0.22119   0.22334
 Alpha virt. eigenvalues --    0.22652   0.22947   0.23410   0.24322   0.24488
 Alpha virt. eigenvalues --    0.24875   0.25409   0.25889   0.26379   0.27078
 Alpha virt. eigenvalues --    0.27101   0.27646   0.28101   0.28603   0.29199
 Alpha virt. eigenvalues --    0.29739   0.30102   0.31057   0.31198   0.32136
 Alpha virt. eigenvalues --    0.32591   0.34019   0.34723   0.35641   0.36089
 Alpha virt. eigenvalues --    0.37841   0.38122   0.38863   0.41588   0.42698
 Alpha virt. eigenvalues --    0.43051   0.44382   0.45699   0.46853   0.48295
 Alpha virt. eigenvalues --    0.48984   0.49887   0.51137   0.52282   0.53029
 Alpha virt. eigenvalues --    0.53813   0.54330   0.54582   0.55614   0.55831
 Alpha virt. eigenvalues --    0.56289   0.56451   0.56995   0.57308   0.58069
 Alpha virt. eigenvalues --    0.59154   0.59897   0.60459   0.61373   0.61895
 Alpha virt. eigenvalues --    0.62742   0.63037   0.63499   0.64470   0.64613
 Alpha virt. eigenvalues --    0.64910   0.65473   0.66297   0.66563   0.67024
 Alpha virt. eigenvalues --    0.67192   0.67708   0.68133   0.68822   0.70033
 Alpha virt. eigenvalues --    0.70304   0.70879   0.71208   0.71855   0.72201
 Alpha virt. eigenvalues --    0.72847   0.73062   0.73345   0.74101   0.74538
 Alpha virt. eigenvalues --    0.75642   0.76433   0.77007   0.77748   0.78532
 Alpha virt. eigenvalues --    0.79553   0.79993   0.80850   0.81895   0.82238
 Alpha virt. eigenvalues --    0.83318   0.83817   0.84024   0.84781   0.85391
 Alpha virt. eigenvalues --    0.87067   0.88135   0.88843   0.90739   0.91346
 Alpha virt. eigenvalues --    0.92644   0.93025   0.96749   0.96962   0.98361
 Alpha virt. eigenvalues --    0.99056   1.00177   1.01558   1.02180   1.02527
 Alpha virt. eigenvalues --    1.04007   1.04771   1.06512   1.07658   1.08362
 Alpha virt. eigenvalues --    1.09977   1.10873   1.11350   1.12734   1.13868
 Alpha virt. eigenvalues --    1.13912   1.14663   1.15973   1.16814   1.17397
 Alpha virt. eigenvalues --    1.18140   1.19707   1.21129   1.22223   1.23002
 Alpha virt. eigenvalues --    1.23949   1.24616   1.25519   1.25723   1.27202
 Alpha virt. eigenvalues --    1.27642   1.29377   1.30869   1.31108   1.31699
 Alpha virt. eigenvalues --    1.31780   1.32874   1.33855   1.34371   1.34611
 Alpha virt. eigenvalues --    1.36181   1.37095   1.37933   1.38267   1.38567
 Alpha virt. eigenvalues --    1.40349   1.40760   1.41119   1.41653   1.42238
 Alpha virt. eigenvalues --    1.43178   1.43396   1.44481   1.47231   1.47985
 Alpha virt. eigenvalues --    1.48380   1.49154   1.50103   1.51007   1.51968
 Alpha virt. eigenvalues --    1.52045   1.54082   1.54723   1.57781   1.60937
 Alpha virt. eigenvalues --    1.61794   1.63130   1.63563   1.66945   1.67483
 Alpha virt. eigenvalues --    1.69192   1.69858   1.70464   1.71741   1.72428
 Alpha virt. eigenvalues --    1.73242   1.73390   1.75769   1.77385   1.79472
 Alpha virt. eigenvalues --    1.80658   1.81753   1.84245   1.84949   1.85930
 Alpha virt. eigenvalues --    1.89190   1.91905   1.96592   1.97947   1.99348
 Alpha virt. eigenvalues --    2.02362   2.03299   2.03585   2.07104   2.11305
 Alpha virt. eigenvalues --    2.16752   2.22760   2.29047   2.32611   2.40755
 Alpha virt. eigenvalues --    2.47869   2.51209   2.52944   2.53275   2.55255
 Alpha virt. eigenvalues --    2.57083   2.58359   2.60649   2.62157   2.62483
 Alpha virt. eigenvalues --    2.63656   2.66924   2.67425   2.68471   2.69636
 Alpha virt. eigenvalues --    2.70260   2.71538   2.72386   2.73300   2.73727
 Alpha virt. eigenvalues --    2.75081   2.76155   2.76305   2.76527   2.77247
 Alpha virt. eigenvalues --    2.78623   2.79230   2.79889   2.80147   2.80572
 Alpha virt. eigenvalues --    2.81232   2.81756   2.82924   2.83927   2.84258
 Alpha virt. eigenvalues --    2.85061   2.85905   2.86153   2.87043   2.87646
 Alpha virt. eigenvalues --    2.88375   2.88469   2.89802   2.90870   2.91625
 Alpha virt. eigenvalues --    2.93109   2.94346   2.95120   2.96863   2.97406
 Alpha virt. eigenvalues --    2.98584   2.99149   3.01031   3.02579   3.03732
 Alpha virt. eigenvalues --    3.06999   3.08703   3.09026   3.10770   3.11188
 Alpha virt. eigenvalues --    3.12188   3.13213   3.14562   3.15643   3.16019
 Alpha virt. eigenvalues --    3.17157   3.17580   3.18367   3.19009   3.19643
 Alpha virt. eigenvalues --    3.21248   3.22398   3.23288   3.23545   3.23978
 Alpha virt. eigenvalues --    3.25763   3.26702   3.27024   3.27845   3.28772
 Alpha virt. eigenvalues --    3.29800   3.30332   3.31559   3.32336   3.33091
 Alpha virt. eigenvalues --    3.33792   3.36661   3.37286   3.37538   3.39094
 Alpha virt. eigenvalues --    3.39804   3.40056   3.41378   3.42218   3.43517
 Alpha virt. eigenvalues --    3.43932   3.44867   3.45666   3.47624   3.49357
 Alpha virt. eigenvalues --    3.50418   3.51882   3.51910   3.52493   3.53616
 Alpha virt. eigenvalues --    3.55341   3.55607   3.56810   3.60040   3.61050
 Alpha virt. eigenvalues --    3.61470   3.62520   3.63649   3.64936   3.67201
 Alpha virt. eigenvalues --    3.67845   3.68483   3.69693   3.69919   3.71553
 Alpha virt. eigenvalues --    3.73395   3.74635   3.74874   3.75690   3.78193
 Alpha virt. eigenvalues --    3.78893   3.80288   3.80999   3.81859   3.83205
 Alpha virt. eigenvalues --    3.83277   3.83625   3.85773   3.85942   3.88649
 Alpha virt. eigenvalues --    3.89401   3.92091   3.92569   3.95024   3.96505
 Alpha virt. eigenvalues --    3.98556   3.99222   4.00917   4.01252   4.04032
 Alpha virt. eigenvalues --    4.05070   4.07237   4.07586   4.09013   4.09125
 Alpha virt. eigenvalues --    4.10985   4.12590   4.13286   4.14483   4.15157
 Alpha virt. eigenvalues --    4.15706   4.18472   4.20382   4.21588   4.23427
 Alpha virt. eigenvalues --    4.23472   4.27718   4.29785   4.30413   4.31755
 Alpha virt. eigenvalues --    4.33725   4.34333   4.35222   4.36747   4.37144
 Alpha virt. eigenvalues --    4.37858   4.40077   4.41592   4.42757   4.43772
 Alpha virt. eigenvalues --    4.44129   4.46059   4.46748   4.47575   4.48042
 Alpha virt. eigenvalues --    4.50253   4.52412   4.53020   4.54375   4.55192
 Alpha virt. eigenvalues --    4.57252   4.59382   4.63288   4.64374   4.66766
 Alpha virt. eigenvalues --    4.70624   4.71207   4.72299   4.72731   4.72936
 Alpha virt. eigenvalues --    4.75754   4.77138   4.79291   4.83452   4.84658
 Alpha virt. eigenvalues --    4.90479   4.93406   4.94262   4.95434   4.98655
 Alpha virt. eigenvalues --    5.01204   5.04697   5.06066   5.07456   5.08376
 Alpha virt. eigenvalues --    5.10605   5.13957   5.16154   5.17013   5.19299
 Alpha virt. eigenvalues --    5.19821   5.25685   5.27478   5.28701   5.31912
 Alpha virt. eigenvalues --    5.34175   5.36930   5.40109   5.42335   5.44982
 Alpha virt. eigenvalues --    5.48189   5.48265   5.54144   5.56021   5.59903
 Alpha virt. eigenvalues --    5.62737   5.67479   5.67937   5.69702   5.74301
 Alpha virt. eigenvalues --    5.75156   5.78869   5.93032   5.97315   6.04017
 Alpha virt. eigenvalues --    6.11517   6.14074   6.48761   6.63318   6.83531
 Alpha virt. eigenvalues --    6.86096   6.94000   6.99443   7.07627   7.11586
 Alpha virt. eigenvalues --    7.26419   7.34504   7.49498   7.61463   7.86391
 Alpha virt. eigenvalues --    8.17972  23.92245  23.94703  24.12221  24.34474
 Alpha virt. eigenvalues --   24.48007  24.49943  24.63374  24.71278  24.74100
 Alpha virt. eigenvalues --   24.82041  24.98315  25.18054  50.04600  50.14838
  Beta  occ. eigenvalues --  -19.65137 -19.60595 -10.61745 -10.58997 -10.58947
  Beta  occ. eigenvalues --  -10.58818 -10.58562 -10.57665 -10.57231 -10.55327
  Beta  occ. eigenvalues --  -10.55104 -10.54893 -10.54797 -10.54624  -1.17510
  Beta  occ. eigenvalues --   -0.99957  -0.96409  -0.95769  -0.88436  -0.87872
  Beta  occ. eigenvalues --   -0.84878  -0.82202  -0.74421  -0.69635  -0.68761
  Beta  occ. eigenvalues --   -0.67239  -0.60974  -0.60609  -0.59014  -0.55263
  Beta  occ. eigenvalues --   -0.53801  -0.53188  -0.52601  -0.50758  -0.49202
  Beta  occ. eigenvalues --   -0.49071  -0.47169  -0.45153  -0.44551  -0.43945
  Beta  occ. eigenvalues --   -0.43032  -0.41170  -0.40429  -0.36315  -0.35802
  Beta  occ. eigenvalues --   -0.32833  -0.31442  -0.30859  -0.27029
  Beta virt. eigenvalues --   -0.10185  -0.08630  -0.00320   0.00125   0.00796
  Beta virt. eigenvalues --    0.01434   0.02363   0.02616   0.02937   0.03177
  Beta virt. eigenvalues --    0.04059   0.04784   0.04883   0.05764   0.06186
  Beta virt. eigenvalues --    0.06926   0.07347   0.08000   0.08553   0.09000
  Beta virt. eigenvalues --    0.09859   0.10143   0.10417   0.11118   0.11824
  Beta virt. eigenvalues --    0.12374   0.12647   0.13463   0.14016   0.14292
  Beta virt. eigenvalues --    0.14977   0.15226   0.15799   0.16228   0.16622
  Beta virt. eigenvalues --    0.17103   0.17321   0.18061   0.18308   0.18721
  Beta virt. eigenvalues --    0.19003   0.19603   0.19868   0.20347   0.20542
  Beta virt. eigenvalues --    0.20747   0.21283   0.21342   0.21574   0.22111
  Beta virt. eigenvalues --    0.22297   0.22791   0.22812   0.23527   0.24163
  Beta virt. eigenvalues --    0.24429   0.25043   0.25540   0.25810   0.26313
  Beta virt. eigenvalues --    0.26960   0.27110   0.27650   0.28059   0.28756
  Beta virt. eigenvalues --    0.29535   0.29834   0.30244   0.31030   0.31599
  Beta virt. eigenvalues --    0.32419   0.32641   0.33955   0.34777   0.35506
  Beta virt. eigenvalues --    0.36273   0.37841   0.37960   0.38797   0.41681
  Beta virt. eigenvalues --    0.42341   0.42689   0.44427   0.45315   0.46153
  Beta virt. eigenvalues --    0.48229   0.48918   0.49917   0.51058   0.52198
  Beta virt. eigenvalues --    0.52889   0.53561   0.54309   0.54637   0.55458
  Beta virt. eigenvalues --    0.55769   0.56005   0.56673   0.56991   0.57321
  Beta virt. eigenvalues --    0.57583   0.59023   0.59851   0.60462   0.61191
  Beta virt. eigenvalues --    0.61783   0.62695   0.62828   0.63759   0.64207
  Beta virt. eigenvalues --    0.64628   0.64867   0.65532   0.66244   0.66600
  Beta virt. eigenvalues --    0.67049   0.67223   0.67658   0.67997   0.68672
  Beta virt. eigenvalues --    0.70008   0.70249   0.70926   0.71037   0.71784
  Beta virt. eigenvalues --    0.72116   0.72821   0.73190   0.73487   0.74001
  Beta virt. eigenvalues --    0.74466   0.75373   0.76524   0.77173   0.77757
  Beta virt. eigenvalues --    0.78564   0.79440   0.79803   0.80075   0.81679
  Beta virt. eigenvalues --    0.82009   0.83236   0.83738   0.83918   0.84705
  Beta virt. eigenvalues --    0.85356   0.86847   0.88035   0.88644   0.90820
  Beta virt. eigenvalues --    0.91492   0.92802   0.92995   0.96717   0.97011
  Beta virt. eigenvalues --    0.98396   0.99054   1.00206   1.01352   1.02055
  Beta virt. eigenvalues --    1.02543   1.03974   1.04660   1.06433   1.07794
  Beta virt. eigenvalues --    1.08356   1.09878   1.10907   1.11351   1.12656
  Beta virt. eigenvalues --    1.13827   1.13867   1.14654   1.15813   1.16714
  Beta virt. eigenvalues --    1.17382   1.18077   1.19689   1.21068   1.22247
  Beta virt. eigenvalues --    1.22837   1.23242   1.24210   1.25390   1.25850
  Beta virt. eigenvalues --    1.27231   1.27722   1.29067   1.30637   1.30950
  Beta virt. eigenvalues --    1.31635   1.31719   1.32634   1.33979   1.34333
  Beta virt. eigenvalues --    1.34713   1.36029   1.37088   1.37645   1.38070
  Beta virt. eigenvalues --    1.38372   1.40044   1.40764   1.41092   1.41600
  Beta virt. eigenvalues --    1.42229   1.43059   1.43226   1.44407   1.46973
  Beta virt. eigenvalues --    1.47906   1.48398   1.49185   1.50030   1.50951
  Beta virt. eigenvalues --    1.51884   1.51962   1.54063   1.54622   1.57761
  Beta virt. eigenvalues --    1.60869   1.61674   1.62967   1.63223   1.66568
  Beta virt. eigenvalues --    1.67323   1.69044   1.69430   1.70108   1.71554
  Beta virt. eigenvalues --    1.72250   1.73219   1.73363   1.75773   1.77350
  Beta virt. eigenvalues --    1.79342   1.80635   1.81428   1.84151   1.84975
  Beta virt. eigenvalues --    1.85980   1.89095   1.90592   1.96542   1.97985
  Beta virt. eigenvalues --    1.99067   2.02307   2.03289   2.03590   2.07127
  Beta virt. eigenvalues --    2.11307   2.16754   2.22752   2.29013   2.32586
  Beta virt. eigenvalues --    2.40749   2.48611   2.51261   2.52959   2.53394
  Beta virt. eigenvalues --    2.55298   2.57306   2.58481   2.60958   2.62483
  Beta virt. eigenvalues --    2.62840   2.63937   2.67126   2.67751   2.68651
  Beta virt. eigenvalues --    2.69964   2.70753   2.71855   2.72818   2.73592
  Beta virt. eigenvalues --    2.74135   2.75399   2.76535   2.76754   2.76936
  Beta virt. eigenvalues --    2.77612   2.78933   2.79451   2.80141   2.80464
  Beta virt. eigenvalues --    2.80725   2.81627   2.81818   2.83256   2.84216
  Beta virt. eigenvalues --    2.84630   2.85196   2.85994   2.86331   2.87356
  Beta virt. eigenvalues --    2.87826   2.88483   2.88523   2.89889   2.91032
  Beta virt. eigenvalues --    2.91777   2.93300   2.94784   2.95399   2.96959
  Beta virt. eigenvalues --    2.97511   2.98833   2.99288   3.01544   3.02880
  Beta virt. eigenvalues --    3.04004   3.07470   3.09042   3.09204   3.11067
  Beta virt. eigenvalues --    3.11380   3.12390   3.13440   3.15263   3.15773
  Beta virt. eigenvalues --    3.16182   3.17426   3.17817   3.18492   3.19299
  Beta virt. eigenvalues --    3.19773   3.21407   3.23030   3.23604   3.23840
  Beta virt. eigenvalues --    3.24318   3.25984   3.27052   3.27805   3.28553
  Beta virt. eigenvalues --    3.29408   3.30081   3.30724   3.31938   3.32477
  Beta virt. eigenvalues --    3.33505   3.34367   3.36920   3.37585   3.37854
  Beta virt. eigenvalues --    3.39699   3.40140   3.40539   3.41880   3.42627
  Beta virt. eigenvalues --    3.43865   3.44580   3.45091   3.45945   3.48043
  Beta virt. eigenvalues --    3.49597   3.50672   3.52053   3.52103   3.53761
  Beta virt. eigenvalues --    3.53966   3.56102   3.56352   3.57524   3.60340
  Beta virt. eigenvalues --    3.61309   3.61756   3.62837   3.64545   3.65642
  Beta virt. eigenvalues --    3.67634   3.68238   3.68831   3.70175   3.70333
  Beta virt. eigenvalues --    3.71856   3.73523   3.74841   3.75089   3.75981
  Beta virt. eigenvalues --    3.78646   3.78993   3.80464   3.81254   3.82231
  Beta virt. eigenvalues --    3.83353   3.83437   3.83794   3.86199   3.86243
  Beta virt. eigenvalues --    3.89093   3.89569   3.92663   3.93040   3.95244
  Beta virt. eigenvalues --    3.96825   3.98810   3.99342   4.01325   4.01569
  Beta virt. eigenvalues --    4.04190   4.05160   4.07393   4.07722   4.09101
  Beta virt. eigenvalues --    4.09366   4.11504   4.12768   4.13388   4.14782
  Beta virt. eigenvalues --    4.15276   4.15923   4.18568   4.20463   4.21767
  Beta virt. eigenvalues --    4.23500   4.23676   4.27878   4.29910   4.30557
  Beta virt. eigenvalues --    4.31784   4.34162   4.34614   4.35364   4.37041
  Beta virt. eigenvalues --    4.37653   4.38016   4.40112   4.41737   4.42948
  Beta virt. eigenvalues --    4.43940   4.44171   4.46099   4.46872   4.47682
  Beta virt. eigenvalues --    4.48140   4.50363   4.52665   4.53190   4.54641
  Beta virt. eigenvalues --    4.55285   4.57324   4.59723   4.63535   4.64473
  Beta virt. eigenvalues --    4.67065   4.70678   4.71387   4.72453   4.72835
  Beta virt. eigenvalues --    4.73175   4.75916   4.77261   4.80971   4.83817
  Beta virt. eigenvalues --    4.85331   4.90744   4.93508   4.94971   4.95559
  Beta virt. eigenvalues --    4.98676   5.01281   5.04711   5.06147   5.07487
  Beta virt. eigenvalues --    5.08399   5.10924   5.13873   5.15990   5.16938
  Beta virt. eigenvalues --    5.19470   5.19848   5.25770   5.27874   5.29516
  Beta virt. eigenvalues --    5.33218   5.34082   5.36940   5.40012   5.42421
  Beta virt. eigenvalues --    5.45177   5.48210   5.48832   5.54160   5.56251
  Beta virt. eigenvalues --    5.60045   5.62764   5.67522   5.68277   5.69709
  Beta virt. eigenvalues --    5.74306   5.75161   5.78898   5.93571   5.97407
  Beta virt. eigenvalues --    6.04085   6.12876   6.14084   6.48775   6.63325
  Beta virt. eigenvalues --    6.83172   6.85800   6.93934   6.99386   7.07456
  Beta virt. eigenvalues --    7.11471   7.26519   7.34383   7.49493   7.61197
  Beta virt. eigenvalues --    7.86333   8.17954  23.92252  23.95105  24.12437
  Beta virt. eigenvalues --   24.34642  24.48011  24.49947  24.63469  24.71283
  Beta virt. eigenvalues --   24.74103  24.82444  24.99069  25.18058  50.04611
  Beta virt. eigenvalues --   50.14964
          Condensed to atoms (all electrons):
               1          2          3          4          5          6
     1  C    5.476240   0.014395   0.027050   0.342579   0.444802  -0.932047
     2  C    0.014395   8.276648   0.674548   0.036005  -0.986162   0.269811
     3  C    0.027050   0.674548   7.262708   0.025378  -1.703344   1.126685
     4  H    0.342579   0.036005   0.025378   0.481943  -0.018137   0.016108
     5  C    0.444802  -0.986162  -1.703344  -0.018137  13.505087  -2.060041
     6  C   -0.932047   0.269811   1.126685   0.016108  -2.060041  13.552525
     7  C    0.629219  -1.969958  -0.527154  -0.026530  -4.177091  -2.281803
     8  H    0.033463   0.318574  -0.010066  -0.006567   0.000695   0.013319
     9  H    0.059522  -0.019819   0.287087  -0.006588   0.052679  -0.011768
    10  H   -0.031557   0.009798   0.037449  -0.000099   0.205512   0.093367
    11  H   -0.008598   0.040923   0.003235  -0.000071  -0.025688   0.038579
    12  C    0.002650   0.009695  -0.724113   0.005351  -0.709963  -4.695178
    13  C    0.042204  -0.366794   0.194515  -0.000481   1.427443   0.617158
    14  C   -0.025453   0.364369  -0.086236  -0.000176   0.676236  -0.662679
    15  H    0.001817  -0.022176  -0.000383   0.000002   0.038457   0.049955
    16  C    0.049226  -0.124764  -0.043314  -0.000033  -0.191791   0.183387
    17  H   -0.001367   0.005796   0.000796   0.000000  -0.019452   0.026105
    18  C   -0.012312   0.040713  -0.010949   0.000057  -0.300525   0.272828
    19  H    0.002199   0.002596  -0.004952   0.000000   0.018649  -0.013814
    20  C    0.010804  -0.015063  -0.012409  -0.000035   0.299329  -0.185987
    21  H   -0.000032   0.000048   0.000451   0.000000   0.002072  -0.003171
    22  H    0.000071   0.000126  -0.000266  -0.000000  -0.004408   0.001650
    23  O   -0.000631   0.018935  -0.011912  -0.000003   0.045416  -0.019724
    24  O   -0.000004   0.017047   0.000895  -0.000000   0.002414  -0.104531
    25  H    0.000029  -0.003417   0.000085  -0.000000   0.005483   0.010561
               7          8          9         10         11         12
     1  C    0.629219   0.033463   0.059522  -0.031557  -0.008598   0.002650
     2  C   -1.969958   0.318574  -0.019819   0.009798   0.040923   0.009695
     3  C   -0.527154  -0.010066   0.287087   0.037449   0.003235  -0.724113
     4  H   -0.026530  -0.006567  -0.006588  -0.000099  -0.000071   0.005351
     5  C   -4.177091   0.000695   0.052679   0.205512  -0.025688  -0.709963
     6  C   -2.281803   0.013319  -0.011768   0.093367   0.038579  -4.695178
     7  C   13.563901   0.013481   0.006231  -0.000687   0.333373   1.154769
     8  H    0.013481   0.484931  -0.000063   0.000041  -0.006304   0.007969
     9  H    0.006231  -0.000063   0.486775  -0.006846   0.000035   0.006931
    10  H   -0.000687   0.000041  -0.006846   0.463913  -0.000031   0.083980
    11  H    0.333373  -0.006304   0.000035  -0.000031   0.434230   0.002725
    12  C    1.154769   0.007969   0.006931   0.083980   0.002725  16.546825
    13  C   -1.054899   0.000143  -0.002499  -0.005564  -0.004278  -3.276328
    14  C   -0.478386   0.000163  -0.001526  -0.013074  -0.002538  -2.290842
    15  H   -0.074477   0.000017  -0.000015   0.000987   0.002054  -0.168679
    16  C    0.457621  -0.000024   0.000972  -0.006440   0.000813   0.163515
    17  H    0.007903  -0.000000   0.000008  -0.000043   0.000083   0.007011
    18  C    0.162517  -0.000084   0.000636   0.010012   0.003574   0.639659
    19  H    0.002865   0.000005   0.000007  -0.000107   0.000202   0.029987
    20  C   -0.088276  -0.000005  -0.000138  -0.005938  -0.000536  -1.076426
    21  H   -0.000039  -0.000000  -0.000000  -0.000023  -0.000000   0.041475
    22  H    0.004880   0.000000  -0.000000  -0.000005  -0.000000   0.005923
    23  O   -0.076721   0.000087   0.000003  -0.000474  -0.003247   0.233341
    24  O    0.034247  -0.000031   0.000000  -0.000007   0.002152   0.103661
    25  H   -0.017021  -0.000000  -0.000000   0.000001   0.000148   0.005997
              13         14         15         16         17         18
     1  C    0.042204  -0.025453   0.001817   0.049226  -0.001367  -0.012312
     2  C   -0.366794   0.364369  -0.022176  -0.124764   0.005796   0.040713
     3  C    0.194515  -0.086236  -0.000383  -0.043314   0.000796  -0.010949
     4  H   -0.000481  -0.000176   0.000002  -0.000033   0.000000   0.000057
     5  C    1.427443   0.676236   0.038457  -0.191791  -0.019452  -0.300525
     6  C    0.617158  -0.662679   0.049955   0.183387   0.026105   0.272828
     7  C   -1.054899  -0.478386  -0.074477   0.457621   0.007903   0.162517
     8  H    0.000143   0.000163   0.000017  -0.000024  -0.000000  -0.000084
     9  H   -0.002499  -0.001526  -0.000015   0.000972   0.000008   0.000636
    10  H   -0.005564  -0.013074   0.000987  -0.006440  -0.000043   0.010012
    11  H   -0.004278  -0.002538   0.002054   0.000813   0.000083   0.003574
    12  C   -3.276328  -2.290842  -0.168679   0.163515   0.007011   0.639659
    13  C    8.805713   1.025542   0.138795  -0.892770   0.365956  -0.823720
    14  C    1.025542   8.851344  -0.007975  -1.283400   0.019327  -0.694025
    15  H    0.138795  -0.007975   0.377692   0.010492  -0.001276  -0.050262
    16  C   -0.892770  -1.283400   0.010492   6.930611  -0.048144   0.403481
    17  H    0.365956   0.019327  -0.001276  -0.048144   0.450900  -0.007443
    18  C   -0.823720  -0.694025  -0.050262   0.403481  -0.007443   6.048012
    19  H   -0.009229   0.333828  -0.003660   0.008619  -0.000018   0.014381
    20  C    0.398494   0.595657   0.022780   0.286223   0.002737   0.147530
    21  H   -0.035735  -0.037208  -0.000029   0.005843  -0.000028   0.031202
    22  H   -0.013236  -0.012032   0.000133  -0.002235   0.000047   0.360263
    23  O   -0.174150   0.013137  -0.012801  -0.000996   0.001101   0.019956
    24  O    0.033287  -0.008187  -0.041549   0.004463  -0.002464   0.007175
    25  H    0.003279  -0.008181   0.002197   0.006977   0.000004   0.001059
              19         20         21         22         23         24
     1  C    0.002199   0.010804  -0.000032   0.000071  -0.000631  -0.000004
     2  C    0.002596  -0.015063   0.000048   0.000126   0.018935   0.017047
     3  C   -0.004952  -0.012409   0.000451  -0.000266  -0.011912   0.000895
     4  H    0.000000  -0.000035   0.000000  -0.000000  -0.000003  -0.000000
     5  C    0.018649   0.299329   0.002072  -0.004408   0.045416   0.002414
     6  C   -0.013814  -0.185987  -0.003171   0.001650  -0.019724  -0.104531
     7  C    0.002865  -0.088276  -0.000039   0.004880  -0.076721   0.034247
     8  H    0.000005  -0.000005  -0.000000   0.000000   0.000087  -0.000031
     9  H    0.000007  -0.000138  -0.000000  -0.000000   0.000003   0.000000
    10  H   -0.000107  -0.005938  -0.000023  -0.000005  -0.000474  -0.000007
    11  H    0.000202  -0.000536  -0.000000  -0.000000  -0.003247   0.002152
    12  C    0.029987  -1.076426   0.041475   0.005923   0.233341   0.103661
    13  C   -0.009229   0.398494  -0.035735  -0.013236  -0.174150   0.033287
    14  C    0.333828   0.595657  -0.037208  -0.012032   0.013137  -0.008187
    15  H   -0.003660   0.022780  -0.000029   0.000133  -0.012801  -0.041549
    16  C    0.008619   0.286223   0.005843  -0.002235  -0.000996   0.004463
    17  H   -0.000018   0.002737  -0.000028   0.000047   0.001101  -0.002464
    18  C    0.014381   0.147530   0.031202   0.360263   0.019956   0.007175
    19  H    0.444008  -0.011767  -0.000060  -0.006234   0.000042   0.000073
    20  C   -0.011767   5.404941   0.361522   0.039102   0.002820   0.000607
    21  H   -0.000060   0.361522   0.460266  -0.003174  -0.000052   0.000004
    22  H   -0.006234   0.039102  -0.003174   0.460786  -0.000022  -0.000006
    23  O    0.000042   0.002820  -0.000052  -0.000022   8.511156  -0.007342
    24  O    0.000073   0.000607   0.000004  -0.000006  -0.007342   7.964238
    25  H   -0.000018  -0.000824   0.000000   0.000001  -0.039204   0.231541
              25
     1  C    0.000029
     2  C   -0.003417
     3  C    0.000085
     4  H   -0.000000
     5  C    0.005483
     6  C    0.010561
     7  C   -0.017021
     8  H   -0.000000
     9  H   -0.000000
    10  H    0.000001
    11  H    0.000148
    12  C    0.005997
    13  C    0.003279
    14  C   -0.008181
    15  H    0.002197
    16  C    0.006977
    17  H    0.000004
    18  C    0.001059
    19  H   -0.000018
    20  C   -0.000824
    21  H    0.000000
    22  H    0.000001
    23  O   -0.039204
    24  O    0.231541
    25  H    0.561371
          Atomic-Atomic Spin Densities.
               1          2          3          4          5          6
     1  C    0.006901  -0.001853   0.003391  -0.000088  -0.013383  -0.002441
     2  C   -0.001853   0.010734   0.019183   0.000039  -0.038287  -0.001392
     3  C    0.003391   0.019183   0.068135   0.000046  -0.091702   0.029347
     4  H   -0.000088   0.000039   0.000046  -0.000107   0.000112  -0.000043
     5  C   -0.013383  -0.038287  -0.091702   0.000112   0.215872  -0.052950
     6  C   -0.002441  -0.001392   0.029347  -0.000043  -0.052950   0.097645
     7  C    0.007167   0.021972   0.009527  -0.000054  -0.106378  -0.031074
     8  H    0.000416  -0.000938  -0.000046  -0.000005  -0.000302  -0.000517
     9  H   -0.000279  -0.000007  -0.000626   0.000005   0.001280  -0.000219
    10  H    0.000429   0.000232   0.003639  -0.000001   0.002157  -0.003572
    11  H    0.000022   0.000557  -0.000231   0.000000   0.000840   0.002099
    12  C    0.002059  -0.003226  -0.038751   0.000014   0.086821   0.048695
    13  C   -0.000043   0.001612   0.008104  -0.000005   0.030159  -0.097453
    14  C   -0.001174  -0.007586   0.000124  -0.000015  -0.010199  -0.083224
    15  H   -0.000034   0.000348  -0.000120   0.000000   0.004857   0.009328
    16  C    0.001243  -0.000393  -0.014358   0.000006  -0.011636   0.072247
    17  H   -0.000093   0.000145  -0.000033   0.000000   0.001106   0.007602
    18  C    0.000373  -0.000430  -0.001583   0.000002  -0.005861   0.037647
    19  H    0.000146  -0.000155  -0.000298  -0.000000  -0.003732  -0.004367
    20  C   -0.000902   0.000649   0.007398  -0.000001   0.012952  -0.030257
    21  H    0.000008  -0.000006  -0.000102   0.000000   0.000381   0.000817
    22  H   -0.000012   0.000005   0.000080   0.000000   0.000273   0.000752
    23  O    0.000249  -0.002247   0.000135  -0.000000  -0.009989  -0.026142
    24  O   -0.000067   0.000123   0.000032   0.000000   0.000851   0.006163
    25  H    0.000002  -0.000012  -0.000002   0.000000  -0.000035  -0.000080
               7          8          9         10         11         12
     1  C    0.007167   0.000416  -0.000279   0.000429   0.000022   0.002059
     2  C    0.021972  -0.000938  -0.000007   0.000232   0.000557  -0.003226
     3  C    0.009527  -0.000046  -0.000626   0.003639  -0.000231  -0.038751
     4  H   -0.000054  -0.000005   0.000005  -0.000001   0.000000   0.000014
     5  C   -0.106378  -0.000302   0.001280   0.002157   0.000840   0.086821
     6  C   -0.031074  -0.000517  -0.000219  -0.003572   0.002099   0.048695
     7  C    0.172656   0.001083  -0.000271  -0.002520  -0.002335  -0.068869
     8  H    0.001083   0.000179   0.000000   0.000001   0.000036   0.000226
     9  H   -0.000271   0.000000  -0.000014  -0.000033  -0.000001   0.000152
    10  H   -0.002520   0.000001  -0.000033   0.000418   0.000000  -0.002919
    11  H   -0.002335   0.000036  -0.000001   0.000000  -0.000442  -0.001987
    12  C   -0.068869   0.000226   0.000152  -0.002919  -0.001987  -0.014043
    13  C   -0.037460   0.000018  -0.000054   0.003892   0.000106  -0.047448
    14  C    0.004681   0.000056   0.000052   0.001640   0.000886   0.016281
    15  H   -0.009441   0.000003  -0.000000  -0.000004  -0.000197  -0.022370
    16  C    0.026502  -0.000022  -0.000023  -0.002854  -0.000175   0.002209
    17  H    0.000553  -0.000001   0.000001  -0.000191  -0.000005   0.000895
    18  C    0.008413  -0.000006  -0.000011  -0.001028  -0.000192   0.006004
    19  H    0.005559   0.000001  -0.000000   0.000030   0.000011  -0.000700
    20  C   -0.008970   0.000001   0.000007   0.000604   0.000028  -0.010535
    21  H   -0.000111  -0.000000   0.000000  -0.000021  -0.000000  -0.000236
    22  H   -0.000192  -0.000000   0.000000  -0.000012   0.000000   0.002916
    23  O    0.021469  -0.000003   0.000001   0.000009   0.000753   0.042547
    24  O   -0.002711   0.000001  -0.000000  -0.000001  -0.000227  -0.007368
    25  H    0.000170  -0.000000  -0.000000   0.000000   0.000001  -0.000215
              13         14         15         16         17         18
     1  C   -0.000043  -0.001174  -0.000034   0.001243  -0.000093   0.000373
     2  C    0.001612  -0.007586   0.000348  -0.000393   0.000145  -0.000430
     3  C    0.008104   0.000124  -0.000120  -0.014358  -0.000033  -0.001583
     4  H   -0.000005  -0.000015   0.000000   0.000006   0.000000   0.000002
     5  C    0.030159  -0.010199   0.004857  -0.011636   0.001106  -0.005861
     6  C   -0.097453  -0.083224   0.009328   0.072247   0.007602   0.037647
     7  C   -0.037460   0.004681  -0.009441   0.026502   0.000553   0.008413
     8  H    0.000018   0.000056   0.000003  -0.000022  -0.000001  -0.000006
     9  H   -0.000054   0.000052  -0.000000  -0.000023   0.000001  -0.000011
    10  H    0.003892   0.001640  -0.000004  -0.002854  -0.000191  -0.001028
    11  H    0.000106   0.000886  -0.000197  -0.000175  -0.000005  -0.000192
    12  C   -0.047448   0.016281  -0.022370   0.002209   0.000895   0.006004
    13  C    0.337948   0.152405   0.011291  -0.217505  -0.020798  -0.104141
    14  C    0.152405   0.174360   0.015214  -0.138097  -0.005935  -0.098827
    15  H    0.011291   0.015214  -0.001682  -0.012373  -0.000885  -0.006389
    16  C   -0.217505  -0.138097  -0.012373   1.044114   0.010344   0.079769
    17  H   -0.020798  -0.005935  -0.000885   0.010344   0.025698   0.003937
    18  C   -0.104141  -0.098827  -0.006389   0.079769   0.003937   0.109550
    19  H    0.000637   0.007616   0.000114  -0.000718  -0.000022  -0.003085
    20  C    0.088792   0.044113   0.003947  -0.069498  -0.006937  -0.044501
    21  H   -0.009718  -0.007502  -0.000030   0.004164   0.000139  -0.003282
    22  H   -0.002995  -0.009196   0.000001   0.002300   0.000013   0.005591
    23  O   -0.012714  -0.014577   0.011798   0.008180   0.000446   0.006335
    24  O   -0.001050   0.001620  -0.003541  -0.000352   0.000132   0.000163
    25  H    0.000160  -0.000028  -0.000024   0.000232  -0.000010   0.000057
              19         20         21         22         23         24
     1  C    0.000146  -0.000902   0.000008  -0.000012   0.000249  -0.000067
     2  C   -0.000155   0.000649  -0.000006   0.000005  -0.002247   0.000123
     3  C   -0.000298   0.007398  -0.000102   0.000080   0.000135   0.000032
     4  H   -0.000000  -0.000001   0.000000   0.000000  -0.000000   0.000000
     5  C   -0.003732   0.012952   0.000381   0.000273  -0.009989   0.000851
     6  C   -0.004367  -0.030257   0.000817   0.000752  -0.026142   0.006163
     7  C    0.005559  -0.008970  -0.000111  -0.000192   0.021469  -0.002711
     8  H    0.000001   0.000001  -0.000000  -0.000000  -0.000003   0.000001
     9  H   -0.000000   0.000007   0.000000   0.000000   0.000001  -0.000000
    10  H    0.000030   0.000604  -0.000021  -0.000012   0.000009  -0.000001
    11  H    0.000011   0.000028  -0.000000   0.000000   0.000753  -0.000227
    12  C   -0.000700  -0.010535  -0.000236   0.002916   0.042547  -0.007368
    13  C    0.000637   0.088792  -0.009718  -0.002995  -0.012714  -0.001050
    14  C    0.007616   0.044113  -0.007502  -0.009196  -0.014577   0.001620
    15  H    0.000114   0.003947  -0.000030   0.000001   0.011798  -0.003541
    16  C   -0.000718  -0.069498   0.004164   0.002300   0.008180  -0.000352
    17  H   -0.000022  -0.006937   0.000139   0.000013   0.000446   0.000132
    18  C   -0.003085  -0.044501  -0.003282   0.005591   0.006335   0.000163
    19  H    0.002113  -0.001588  -0.000012  -0.000623   0.000077   0.000014
    20  C   -0.001588   0.162591   0.008029   0.000191  -0.003224  -0.000015
    21  H   -0.000012   0.008029   0.005955   0.000419   0.000027   0.000001
    22  H   -0.000623   0.000191   0.000419   0.004835  -0.000015   0.000003
    23  O    0.000077  -0.003224   0.000027  -0.000015  -0.088102   0.012929
    24  O    0.000014  -0.000015   0.000001   0.000003   0.012929  -0.019523
    25  H    0.000000  -0.000125   0.000000  -0.000000   0.000011  -0.000159
              25
     1  C    0.000002
     2  C   -0.000012
     3  C   -0.000002
     4  H    0.000000
     5  C   -0.000035
     6  C   -0.000080
     7  C    0.000170
     8  H   -0.000000
     9  H   -0.000000
    10  H    0.000000
    11  H    0.000001
    12  C   -0.000215
    13  C    0.000160
    14  C   -0.000028
    15  H   -0.000024
    16  C    0.000232
    17  H   -0.000010
    18  C    0.000057
    19  H    0.000000
    20  C   -0.000125
    21  H    0.000000
    22  H   -0.000000
    23  O    0.000011
    24  O   -0.000159
    25  H    0.000699
 Mulliken charges and spin densities:
               1          2
     1  C   -0.124270   0.002038
     2  C   -0.591874  -0.000933
     3  C   -0.505784   0.001291
     4  H    0.151297  -0.000094
     5  C   -0.527671   0.013204
     6  C    0.698705  -0.021387
     7  C    0.402034   0.009365
     8  H    0.150258   0.000183
     9  H    0.148376  -0.000042
    10  H    0.165834  -0.000103
    11  H    0.189164  -0.000453
    12  C   -0.109938  -0.009849
    13  C   -0.392848   0.083738
    14  C   -0.267683   0.042690
    15  H    0.737906  -0.000188
    16  C    0.081668   0.783304
    17  H    0.192460   0.016099
    18  C   -0.263735  -0.011494
    19  H    0.192398   0.001017
    20  C   -0.175141   0.152749
    21  H    0.176669  -0.001082
    22  H    0.168639   0.004335
    23  O   -0.498716  -0.052048
    24  O   -0.237682  -0.012983
    25  H    0.239932   0.000643
 Sum of Mulliken charges =  -0.00000   1.00000
 Mulliken charges and spin densities with hydrogens summed into heavy atoms:
               1          2
     1  C    0.027028   0.001944
     2  C   -0.441616  -0.000750
     3  C   -0.357407   0.001249
     5  C   -0.361837   0.013101
     6  C    0.698705  -0.021387
     7  C    0.591198   0.008912
    12  C    0.627968  -0.010037
    13  C   -0.200388   0.099837
    14  C   -0.075285   0.043707
    16  C    0.081668   0.783304
    18  C   -0.095096  -0.007159
    20  C    0.001528   0.151668
    23  O   -0.498716  -0.052048
    24  O    0.002250  -0.012340
 Electronic spatial extent (au):  <R**2>=           2907.8313
 Charge=             -0.0000 electrons
 Dipole moment (field-independent basis, Debye):
    X=              0.5239    Y=             -4.9681    Z=             -0.3128  Tot=              5.0055
 Quadrupole moment (field-independent basis, Debye-Ang):
   XX=            -70.9726   YY=            -88.2550   ZZ=            -79.8414
   XY=             -7.6855   XZ=             -2.1769   YZ=             -2.9068
 Traceless Quadrupole moment (field-independent basis, Debye-Ang):
   XX=              8.7170   YY=             -8.5653   ZZ=             -0.1517
   XY=             -7.6855   XZ=             -2.1769   YZ=             -2.9068
 Octapole moment (field-independent basis, Debye-Ang**2):
  XXX=              1.8022  YYY=            -24.4039  ZZZ=              8.3821  XYY=              6.3657
  XXY=             -0.6263  XXZ=             -7.0882  XZZ=             17.7320  YZZ=              6.3151
  YYZ=             -5.5589  XYZ=            -21.6940
 Hexadecapole moment (field-independent basis, Debye-Ang**3):
 XXXX=          -2079.9155 YYYY=          -1366.6130 ZZZZ=           -379.3866 XXXY=             26.3165
 XXXZ=            -18.0386 YYYX=            -13.0008 YYYZ=            -19.1482 ZZZX=             12.3292
 ZZZY=            -32.7750 XXYY=           -485.2269 XXZZ=           -461.6672 YYZZ=           -270.6812
 XXYZ=            -17.5402 YYXZ=            -20.3152 ZZXY=              7.7954
 N-N= 8.118668495717D+02 E-N=-3.054536273027D+03  KE= 6.114157054964D+02
                          Isotropic Fermi Contact Couplings
        Atom                 a.u.       MegaHertz       Gauss      10(-4) cm-1
     1  C(13)              0.00014       0.15231       0.05435       0.05080
     2  C(13)              0.00065       0.73614       0.26267       0.24555
     3  C(13)             -0.00039      -0.44045      -0.15717      -0.14692
     4  H(1)              -0.00002      -0.07175      -0.02560      -0.02393
     5  C(13)             -0.00085      -0.95639      -0.34126      -0.31902
     6  C(13)              0.00543       6.10601       2.17878       2.03675
     7  C(13)              0.00210       2.36344       0.84334       0.78836
     8  H(1)               0.00009       0.39757       0.14186       0.13262
     9  H(1)              -0.00004      -0.18010      -0.06427      -0.06008
    10  H(1)               0.00000       0.00377       0.00134       0.00126
    11  H(1)               0.00000       0.00279       0.00100       0.00093
    12  C(13)              0.01158      13.02275       4.64684       4.34392
    13  C(13)              0.02011      22.60704       8.06675       7.54090
    14  C(13)             -0.00248      -2.79031      -0.99565      -0.93075
    15  H(1)               0.00234      10.46715       3.73494       3.49147
    16  C(13)              0.54086     608.02905     216.95988     202.81666
    17  H(1)               0.01497      66.89329      23.86919      22.31320
    18  C(13)              0.02077      23.34401       8.32972       7.78672
    19  H(1)               0.00133       5.93569       2.11800       1.97993
    20  C(13)              0.04492      50.50249      18.02054      16.84582
    21  H(1)               0.00584      26.10044       9.31329       8.70617
    22  H(1)               0.00215       9.61577       3.43114       3.20747
    23  O(17)             -0.02388      14.47590       5.16536       4.82864
    24  O(17)             -0.00132       0.80235       0.28630       0.26763
    25  H(1)               0.00026       1.14163       0.40736       0.38081
 --------------------------------------------------------
       Center         ----  Spin Dipole Couplings  ----
                      3XX-RR        3YY-RR        3ZZ-RR
 --------------------------------------------------------
     1   Atom        0.000610     -0.001162      0.000552
     2   Atom        0.002245     -0.000750     -0.001496
     3   Atom        0.001865     -0.000772     -0.001093
     4   Atom        0.000822     -0.000458     -0.000364
     5   Atom        0.004280     -0.002476     -0.001804
     6   Atom        0.012987     -0.006200     -0.006787
     7   Atom        0.000968      0.000618     -0.001586
     8   Atom        0.000467     -0.000138     -0.000328
     9   Atom        0.001524     -0.000767     -0.000757
    10   Atom        0.006347     -0.003372     -0.002975
    11   Atom       -0.000691      0.001066     -0.000375
    12   Atom        0.000348     -0.077604      0.077256
    13   Atom        0.012924      0.013094     -0.026018
    14   Atom        0.012611     -0.007174     -0.005437
    15   Atom        0.006075     -0.016659      0.010584
    16   Atom       -0.210677     -0.357009      0.567686
    17   Atom       -0.000155      0.009332     -0.009177
    18   Atom       -0.025771     -0.022822      0.048593
    19   Atom       -0.001755     -0.002263      0.004018
    20   Atom       -0.022240     -0.027038      0.049278
    21   Atom        0.000923      0.004135     -0.005059
    22   Atom       -0.004106     -0.002859      0.006964
    23   Atom        0.011197      0.081516     -0.092713
    24   Atom        0.001045     -0.050671      0.049626
    25   Atom       -0.003569      0.003279      0.000290
 --------------------------------------------------------
                        XY            XZ            YZ
 --------------------------------------------------------
     1   Atom       -0.000231     -0.000534     -0.000320
     2   Atom       -0.000682     -0.000435      0.000518
     3   Atom       -0.000117     -0.000549      0.000318
     4   Atom       -0.000178     -0.000175      0.000008
     5   Atom       -0.000611     -0.001974     -0.002171
     6   Atom       -0.004001     -0.003327      0.000827
     7   Atom       -0.004099      0.000289     -0.000499
     8   Atom       -0.000560     -0.000299      0.000202
     9   Atom        0.000311     -0.000253     -0.000044
    10   Atom        0.002263     -0.002281     -0.000330
    11   Atom       -0.001377     -0.000466      0.000906
    12   Atom       -0.041781     -0.056470      0.034467
    13   Atom       -0.073227     -0.033104      0.017424
    14   Atom        0.016077     -0.001317      0.007834
    15   Atom       -0.012521     -0.002411      0.006813
    16   Atom       -0.098366     -0.485740      0.343890
    17   Atom       -0.016995      0.006805     -0.009430
    18   Atom       -0.015203     -0.027955      0.019488
    19   Atom       -0.000555     -0.002241      0.003312
    20   Atom        0.021293      0.042266     -0.015415
    21   Atom       -0.016591      0.009091     -0.012389
    22   Atom       -0.001838      0.000740     -0.002812
    23   Atom       -0.084612     -0.159816     -0.101534
    24   Atom       -0.063972     -0.021536     -0.075721
    25   Atom       -0.000621      0.002450      0.000183
 --------------------------------------------------------


 ---------------------------------------------------------------------------------
              Anisotropic Spin Dipole Couplings in Principal Axis System
 ---------------------------------------------------------------------------------

       Atom             a.u.   MegaHertz   Gauss  10(-4) cm-1        Axes

              Baa    -0.0013    -0.172    -0.061    -0.057  0.1795  0.9588  0.2201
     1 C(13)  Bbb     0.0002     0.022     0.008     0.007  0.6707 -0.2829  0.6856
              Bcc     0.0011     0.150     0.053     0.050  0.7197  0.0245 -0.6939
 
              Baa    -0.0018    -0.237    -0.084    -0.079  0.0216 -0.4437  0.8959
     2 C(13)  Bbb    -0.0007    -0.094    -0.034    -0.032  0.2629  0.8671  0.4230
              Bcc     0.0025     0.331     0.118     0.110  0.9646 -0.2264 -0.1354
 
              Baa    -0.0013    -0.180    -0.064    -0.060  0.1332 -0.4613  0.8772
[...]
   R13        2.65342  -0.00023  -0.00178   0.00215   0.00037   2.65379
   R14        2.64195  -0.00037  -0.00222   0.00190  -0.00032   2.64163
   R15        4.64723  -0.00007   0.12866  -0.00838   0.12028   4.76751
   R16        2.58390   0.00024  -0.00001   0.00052   0.00051   2.58441
   R17        2.04389  -0.00004  -0.00024  -0.00014  -0.00038   2.04351
   R18        2.62833   0.00001   0.00072   0.00015   0.00087   2.62920
   R19        2.04398   0.00002   0.00071  -0.00008   0.00063   2.04461
   R20        1.82828  -0.00031  -0.00041  -0.00156  -0.00196   1.82631
   R21        2.59102  -0.00029   0.00010   0.00037   0.00047   2.59149
   R22        2.63660  -0.00026  -0.00192   0.00265   0.00074   2.63733
   R23        2.04272   0.00008  -0.00046   0.00048   0.00002   2.04274
   R24        2.04326  -0.00001   0.00002   0.00011   0.00013   2.04339
   R25        2.68115   0.00007   0.00040  -0.00173  -0.00133   2.67982
   R26        1.82129   0.00002  -0.00004  -0.00033  -0.00037   1.82092
    A1        2.08899   0.00016  -0.00059   0.00116   0.00056   2.08955
    A2        2.09696  -0.00004  -0.00018  -0.00004  -0.00021   2.09675
    A3        2.09723  -0.00012   0.00078  -0.00112  -0.00035   2.09688
    A4        2.09924  -0.00018   0.00090  -0.00103  -0.00013   2.09911
    A5        2.09346   0.00021   0.00097   0.00037   0.00134   2.09480
    A6        2.09043  -0.00002  -0.00184   0.00063  -0.00121   2.08922
    A7        2.09499   0.00002  -0.00063   0.00016  -0.00047   2.09452
    A8        2.09656  -0.00000   0.00058  -0.00029   0.00029   2.09685
    A9        2.09162  -0.00002   0.00007   0.00012   0.00019   2.09181
   A10        2.10606  -0.00032   0.00023  -0.00118  -0.00094   2.10511
   A11        2.09400   0.00012  -0.00011   0.00142   0.00131   2.09531
   A12        2.08284   0.00020  -0.00007  -0.00022  -0.00029   2.08255
   A13        2.07520   0.00027   0.00094   0.00118   0.00212   2.07732
   A14        2.09863   0.00120  -0.00232   0.00227  -0.00006   2.09856
   A15        2.10934  -0.00147   0.00142  -0.00347  -0.00206   2.10728
   A16        2.10187   0.00005  -0.00084  -0.00030  -0.00115   2.10073
   A17        2.09380   0.00025  -0.00041   0.00204   0.00161   2.09541
   A18        2.08704  -0.00031   0.00153  -0.00201  -0.00050   2.08654
   A19        2.10233   0.00040   0.00116   0.00003   0.00104   2.10338
   A20        2.11320  -0.00039  -0.00211  -0.00049  -0.00230   2.11090
   A21        1.93807   0.00043   0.02154   0.00814   0.02940   1.96748
   A22        2.06765  -0.00001   0.00106   0.00045   0.00125   2.06890
   A23        1.49362  -0.00026   0.00164  -0.00542  -0.00378   1.48983
   A24        1.27497  -0.00059  -0.01815  -0.00807  -0.02591   1.24906
   A25        2.05362  -0.00010  -0.00028  -0.00054  -0.00084   2.05278
   A26        2.09761   0.00010  -0.00131  -0.00066  -0.00199   2.09562
   A27        2.13149   0.00000   0.00170   0.00088   0.00257   2.13406
   A28        2.11811   0.00014  -0.00060   0.00002  -0.00059   2.11753
   A29        2.07981  -0.00025  -0.00030  -0.00111  -0.00142   2.07840
   A30        2.08514   0.00011   0.00094   0.00108   0.00202   2.08716
   A31        2.19657   0.00007  -0.00033   0.00008  -0.00024   2.19633
   A32        2.10220  -0.00006   0.00024  -0.00079  -0.00055   2.10166
   A33        2.08943   0.00007   0.00103   0.00011   0.00112   2.09055
   A34        2.09155  -0.00001  -0.00126   0.00067  -0.00060   2.09095
   A35        2.02795  -0.00002  -0.00005   0.00087   0.00059   2.02854
   A36        2.13826  -0.00003   0.00002  -0.00086  -0.00109   2.13717
   A37        2.11683   0.00007   0.00027   0.00004   0.00005   2.11688
   A38        1.77519   0.00157   0.00615  -0.00170   0.00445   1.77964
   A39        1.77513   0.00036  -0.00104   0.00362   0.00258   1.77771
   A40        2.62339   0.00007  -0.02770  -0.02964  -0.05735   2.56604
   A41        3.63938  -0.00107   0.02720   0.00032   0.02753   3.66691
    D1       -0.00186  -0.00003   0.00149  -0.00127   0.00021  -0.00165
    D2        3.12794  -0.00005   0.00374  -0.00390  -0.00015   3.12778
    D3       -3.14133  -0.00004   0.00040   0.00001   0.00041  -3.14092
    D4       -0.01153  -0.00005   0.00265  -0.00261   0.00004  -0.01149
    D5       -0.00033   0.00002  -0.00221   0.00117  -0.00104  -0.00136
    D6        3.13736  -0.00006   0.00101  -0.00098   0.00004   3.13739
    D7        3.13914   0.00003  -0.00113  -0.00011  -0.00123   3.13791
    D8       -0.00636  -0.00006   0.00210  -0.00226  -0.00016  -0.00652
    D9       -0.00031  -0.00000   0.00032  -0.00054  -0.00022  -0.00053
   D10        3.10816  -0.00018   0.00869  -0.01026  -0.00158   3.10658
   D11       -3.13013   0.00001  -0.00196   0.00208   0.00013  -3.13000
   D12       -0.02166  -0.00017   0.00641  -0.00764  -0.00123  -0.02289
   D13        0.00472   0.00002   0.00113   0.00074   0.00187   0.00659
   D14        3.12023  -0.00003   0.00340   0.00229   0.00570   3.12593
   D15       -3.13297   0.00011  -0.00209   0.00288   0.00080  -3.13217
   D16       -0.01746   0.00006   0.00019   0.00444   0.00463  -0.01283
   D17       -0.00681  -0.00006   0.00066  -0.00252  -0.00186  -0.00868
   D18        3.14104  -0.00011  -0.00304   0.00221  -0.00083   3.14021
   D19       -3.12249  -0.00000  -0.00160  -0.00409  -0.00569  -3.12818
   D20        0.02536  -0.00005  -0.00530   0.00064  -0.00465   0.02071
   D21        0.00460   0.00005  -0.00139   0.00242   0.00103   0.00564
   D22       -3.10399   0.00022  -0.00968   0.01203   0.00235  -3.10165
   D23        3.13989   0.00011   0.00231  -0.00232   0.00000   3.13990
   D24        0.03130   0.00028  -0.00598   0.00729   0.00131   0.03261
   D25        0.75367   0.00028   0.01424   0.01653   0.03061   0.78427
   D26       -2.39040  -0.00017   0.02008   0.00965   0.02957  -2.36083
   D27        2.45521   0.00042   0.03013   0.01501   0.04548   2.50069
   D28       -2.38154   0.00022   0.01047   0.02134   0.03165  -2.34990
   D29        0.75758  -0.00022   0.01631   0.01446   0.03060   0.78818
   D30       -0.67999   0.00037   0.02636   0.01982   0.04651  -0.63348
   D31        3.12543  -0.00000  -0.00728  -0.00710  -0.01433   3.11110
   D32        0.01584   0.00009  -0.01044   0.00400  -0.00645   0.00939
   D33       -0.01375   0.00043  -0.01294  -0.00039  -0.01331  -0.02706
   D34       -3.12334   0.00053  -0.01609   0.01071  -0.00543  -3.12877
   D35        1.17313  -0.00042  -0.03348  -0.01336  -0.04666   1.12647
   D36       -1.93646  -0.00032  -0.03664  -0.00226  -0.03878  -1.97524
   D37       -3.11959  -0.00005   0.00767   0.00295   0.01055  -3.10904
   D38        0.03859  -0.00008   0.00537   0.00418   0.00947   0.04805
   D39        0.01957  -0.00049   0.01339  -0.00380   0.00953   0.02910
   D40       -3.10543  -0.00051   0.01110  -0.00257   0.00844  -3.09699
   D41       -1.29136   0.00020   0.02313   0.00823   0.03170  -1.25966
   D42        1.86682   0.00018   0.02084   0.00946   0.03062   1.89744
   D43       -0.72244  -0.00047   0.11411  -0.01123   0.10274  -0.61969
   D44        1.37587  -0.00002   0.11558  -0.01138   0.10408   1.47995
   D45       -2.82231   0.00010   0.11838  -0.00985   0.10878  -2.71354
   D46       -0.00651   0.00004   0.00118   0.00446   0.00565  -0.00085
   D47        3.10242  -0.00005   0.00433  -0.00690  -0.00250   3.09992
   D48       -0.00545   0.00006  -0.00177   0.00431   0.00261  -0.00284
   D49        3.14061   0.00014  -0.00003   0.00649   0.00648  -3.13609
   D50        3.11951   0.00008   0.00052   0.00305   0.00367   3.12318
   D51       -0.01762   0.00016   0.00225   0.00524   0.00754  -0.01008
   D52        0.02033  -0.00046   0.01023  -0.00398   0.00621   0.02654
   D53       -3.13953   0.00022  -0.01099  -0.00106  -0.01205   3.13160
   D54       -0.01377   0.00039  -0.00969  -0.00052  -0.01021  -0.02398
   D55       -3.13734  -0.00028   0.01125  -0.00339   0.00783  -3.12951
   D56        3.12335   0.00032  -0.01143  -0.00271  -0.01409   3.10927
   D57       -0.00022  -0.00035   0.00951  -0.00558   0.00396   0.00374
   D58       -1.83816   0.00022   0.00269   0.03672   0.03941  -1.79875
         Item               Value     Threshold  Converged?
 Maximum Force            0.001573     0.002500     YES
 RMS     Force            0.000320     0.001667     YES
 Maximum Displacement     0.233357     0.010000     NO 
 RMS     Displacement     0.049423     0.006667     NO 
 Predicted change in Energy=-6.240376D-05
 GradGradGradGradGradGradGradGradGradGradGradGradGradGradGradGradGradGrad

                          Input orientation:                          
 ---------------------------------------------------------------------
 Center     Atomic      Atomic             Coordinates (Angstroms)
 Number     Number       Type             X           Y           Z
 ---------------------------------------------------------------------
      1          6           0       -9.324463    0.954889    0.181120
      2          6           0       -8.479257   -0.069142    0.590097
      3          6           0       -8.786534    2.150715   -0.274339
      4          1           0      -10.396993    0.821609    0.219519
      5          6           0       -7.410508    2.320239   -0.318290
      6          6           0       -6.555669    1.295233    0.084498
      7          6           0       -7.103590    0.099026    0.542790
      8          1           0       -8.892946   -0.997458    0.957584
      9          1           0       -9.438116    2.950902   -0.598000
     10          1           0       -6.990181    3.246650   -0.686812
     11          1           0       -6.448602   -0.688837    0.892701
     12          6           0       -5.089001    1.484416    0.032528
     13          6           0       -4.506250    2.672796    0.501869
     14          6           0       -4.253267    0.487320   -0.478794
     15          1           0       -3.894651    0.378576    1.960081
     16          6           0       -3.142761    2.770056    0.459468
     17          1           0       -5.128440    3.455651    0.913453
     18          6           0       -2.870582    0.641059   -0.496173
     19          1           0       -4.695582   -0.414421   -0.881108
     20          6           0       -2.282971    1.806454   -0.001893
     21          1           0       -1.210758    1.945444   -0.018645
     22          1           0       -2.248166   -0.143966   -0.902170
     23          8           0       -4.100589    0.173264    2.881736
     24          8           0       -5.352114    0.817508    3.053902
     25          1           0       -5.102327    1.606687    3.547166
 ---------------------------------------------------------------------
                    Distance matrix (angstroms):
                    1          2          3          4          5
     1  C    0.000000
     2  C    1.389343   0.000000
     3  C    1.388096   2.401965   0.000000
     4  H    1.081462   2.146736   2.145693   0.000000
     5  C    2.403501   2.770656   1.387126   3.384410   0.000000
     6  C    2.791306   2.411916   2.416065   3.872767   1.394140
     7  C    2.407403   1.386716   2.776587   3.387202   2.401968
     8  H    2.144939   1.080720   3.382300   2.473035   3.851311
     9  H    2.145697   3.384029   1.081487   2.474202   2.141768
    10  H    3.384427   3.852573   2.144316   4.278859   1.081998
    11  H    3.388032   2.144564   3.858882   4.280703   3.383239
    12  C    4.271021   3.770712   3.769599   5.352482   2.492202
    13  C    5.125355   4.828126   4.381313   6.181220   3.038367
    14  C    5.135283   4.394448   4.833135   6.192314   3.654247
    15  H    5.742795   4.805822   5.662476   6.745835   4.617606
    16  C    6.448702   6.046181   5.724879   7.515179   4.361297
    17  H    4.939305   4.874085   4.061448   5.931052   2.830934
    18  C    6.496907   5.756875   6.109563   7.562518   4.843781
    19  H    4.942660   4.074293   4.866620   5.936771   3.894349
    20  C    7.095158   6.500944   6.518364   8.176570   5.162917
    21  H    8.176388   7.567048   7.582869   9.257789   6.218292
    22  H    7.242581   6.407726   6.957729   8.282144   5.750043
    23  O    5.932379   4.948041   5.985750   6.866765   5.079885
    24  O    4.904213   4.078665   4.964864   5.786583   4.226922
    25  H    5.438891   4.791275   5.336033   6.302624   4.558356
                    6          7          8          9         10
     6  C    0.000000
     7  C    1.393255   0.000000
     8  H    3.388447   2.139188   0.000000
     9  H    3.393456   3.858059   4.278621   0.000000
    10  H    2.142837   3.381172   4.933255   2.467335   0.000000
    11  H    2.145038   1.082670   2.464604   4.940353   4.275071
    12  C    1.479732   2.497648   4.635238   4.632813   2.690243
    13  C    2.504396   3.656794   5.737730   5.060668   2.812861
    14  C    2.504211   3.052662   5.078815   5.741611   3.892026
    15  H    3.382172   3.519112   5.280286   6.625002   4.981385
    16  C    3.736797   4.778024   6.892526   6.386114   4.042740
    17  H    2.718742   3.912229   5.831263   4.594842   2.463861
    18  C    3.787478   4.392220   6.408355   6.962633   4.878170
    19  H    2.704670   2.844225   4.619371   5.822129   4.325087
    20  C    4.304040   5.142991   7.243914   7.270571   4.970021
    21  H    5.385303   6.200801   8.284305   8.308792   5.961654
    22  H    4.647514   5.071695   6.952714   7.833653   5.833469
    23  O    3.887258   3.807124   5.295247   6.950758   5.525394
    24  O    3.239464   3.144768   4.497348   5.880746   4.751520
    25  H    3.768193   3.912079   5.277907   6.147226   4.917321
                   11         12         13         14         15
    11  H    0.000000
    12  C    2.703968   0.000000
    13  C    3.902058   1.404324   0.000000
    14  C    2.843209   1.397891   2.408735   0.000000
    15  H    2.966704   2.522858   2.786374   2.467497   0.000000
    16  C    4.804187   2.371286   1.367611   2.706371   2.921704
    17  H    4.349717   2.159479   1.081380   3.393415   3.476500
    18  C    4.061997   2.431493   2.792750   1.391315   2.674098
    19  H    2.508941   2.143617   3.388124   1.081959   3.056582
    20  C    4.937535   2.824658   2.438707   2.418598   2.913021
    21  H    5.933380   3.905884   3.414710   3.405103   3.684253
    22  H    4.600229   3.405236   3.873554   2.144342   3.343119
    23  O    3.195722   3.288474   3.475052   3.378624   0.966442
    24  O    2.853445   3.105269   3.266566   3.714354   1.874381
    25  H    3.758732   3.516789   3.281117   4.264063   2.342130
                   16         17         18         19         20
    16  C    0.000000
    17  H    2.149201   0.000000
    18  C    2.349460   3.873873   0.000000
    19  H    3.788046   4.287805   2.143090   0.000000
    20  C    1.371358   3.413854   1.395616   3.394995   0.000000
    21  H    2.154347   4.300903   2.164363   4.296138   1.081314
    22  H    3.338545   4.954766   1.080971   2.462404   2.148452
    23  O    3.678063   3.962913   3.625192   3.854658   3.779730
    24  O    3.927439   3.404607   4.334994   4.175283   4.442470
    25  H    3.837604   3.218042   4.718232   4.884663   4.537013
                   21         22         23         24         25
    21  H    0.000000
    22  H    2.494487   0.000000
    23  O    4.461385   4.224932   0.000000
    24  O    5.278600   5.119515   1.418100   0.000000
    25  H    5.289052   5.568447   1.871090   0.963591   0.000000
 Stoichiometry    C12H11O2(2)
 Framework group  C1[X(C12H11O2)]
 Deg. of freedom    69
 Full point group                 C1      NOp   1
 Largest Abelian subgroup         C1      NOp   1
 Largest concise Abelian subgroup C1      NOp   1
                         Standard orientation:                         
 ---------------------------------------------------------------------
 Center     Atomic      Atomic             Coordinates (Angstroms)
 Number     Number       Type             X           Y           Z
 ---------------------------------------------------------------------
      1          6           0       -3.707261   -0.058577    0.124196
      2          6           0       -2.883676    0.794856    0.847823
      3          6           0       -3.148793   -1.098052   -0.606842
      4          1           0       -4.778772    0.087719    0.128765
      5          6           0       -1.773733   -1.280461   -0.614239
      6          6           0       -0.941085   -0.432152    0.114249
      7          6           0       -1.509299    0.610331    0.843304
      8          1           0       -3.312243    1.613443    1.408359
      9          1           0       -3.783836   -1.768753   -1.169421
     10          1           0       -1.338729   -2.099189   -1.172070
     11          1           0       -0.868225    1.296656    1.381964
     12          6           0        0.524570   -0.635407    0.101847
     13          6           0        1.199211   -0.888256   -1.103579
     14          6           0        1.268480   -0.576500    1.283891
     15          1           0        1.809913    1.535310    0.128188
     16          6           0        2.558389   -1.030690   -1.051551
     17          1           0        0.649758   -0.927289   -2.034149
     18          6           0        2.651469   -0.728303    1.276508
     19          1           0        0.752850   -0.423807    2.222745
     20          6           0        3.331769   -0.948057    0.077908
     21          1           0        4.404926   -1.078992    0.057134
     22          1           0        3.201475   -0.683394    2.206011
     23          8           0        1.666507    2.433871   -0.197440
     24          8           0        0.465009    2.290363   -0.936910
     25          1           0        0.790516    2.282034   -1.843818
 ---------------------------------------------------------------------
 Rotational constants (GHZ):           1.1746312           0.4759869           0.4119405
 Standard basis: 6-311+G(2df,2p) (5D, 7F)
 There are   645 symmetry adapted cartesian basis functions of A   symmetry.
 There are   575 symmetry adapted basis functions of A   symmetry.
   575 basis functions,   849 primitive gaussians,   645 cartesian basis functions
    50 alpha electrons       49 beta electrons
       nuclear repulsion energy       820.7436434136 Hartrees.
 NAtoms=   25 NActive=   25 NUniq=   25 SFac= 1.00D+00 NAtFMM=   60 NAOKFM=F Big=F
 Integral buffers will be    131072 words long.
 Raffenetti 2 integral format.
 Two-electron integral symmetry is turned on.
 One-electron integrals computed using PRISM.
 NBasis=   575 RedAO= T EigKep=  1.39D-06  NBF=   575
 NBsUse=   574 1.00D-06 EigRej=  7.33D-07 NBFU=   574
 Initial guess from the checkpoint file:  "/scratch/dinius.ab/QMscratch/Gau-44164.chk"
 B after Tr=    -0.000000   -0.000000   -0.000000
         Rot=    0.999842    0.017442   -0.000887    0.003449 Ang=   2.04 deg.
 Initial guess <Sx>= 0.0000 <Sy>= 0.0000 <Sz>= 0.5000 <S**2>= 0.7616 S= 0.5058
 ExpMin= 4.38D-02 ExpMax= 8.59D+03 ExpMxC= 1.30D+03 IAcc=2 IRadAn=         4 AccDes= 0.00D+00
 Harris functional with IExCor= 1009 and IRadAn=       4 diagonalized for initial guess.
 HarFok:  IExCor= 1009 AccDes= 0.00D+00 IRadAn=         4 IDoV= 1 UseB2=F ITyADJ=14
 ICtDFT=  3500011 ScaDFX=  1.000000  1.000000  1.000000  1.000000
 FoFCou: FMM=F IPFlag=           0 FMFlag=      100000 FMFlg1=           0
         NFxFlg=           0 DoJE=T BraDBF=F KetDBF=T FulRan=T
         wScrn=  0.000000 ICntrl=       500 IOpCl=  0 I1Cent=   200000004 NGrid=           0
         NMat0=    1 NMatS0=      1 NMatT0=    0 NMatD0=    1 NMtDS0=    0 NMtDT0=    0
 Petite list used in FoFCou.
 Requested convergence on RMS density matrix=1.00D-08 within 128 cycles.
 Requested convergence on MAX density matrix=1.00D-06.
 Requested convergence on             energy=1.00D-06.
 No special actions if energy rises.
