 Entering Gaussian System, Link 0=g16
 Input=rxn919.com
 Output=rxn919.log
 Initial command:
 /shared/centos7/gaussian/g16/l1.exe "/scratch/dinius.ab/QMscratch/Gau-37436.inp" -scrdir="/scratch/dinius.ab/QMscratch/"
 Entering Link 1 = /shared/centos7/gaussian/g16/l1.exe PID=     37437.
  
 Copyright (c) 1988,1990,1992,1993,1995,1998,2003,2009,2016,
            Gaussian, Inc.  All Rights Reserved.
  
 This is part of the Gaussian(R) 16 program.  It is based on
 the Gaussian(R) 09 system (copyright 2009, Gaussian, Inc.),
 the Gaussian(R) 03 system (copyright 2003, Gaussian, Inc.),
 the Gaussian(R) 98 system (copyright 1998, Gaussian, Inc.),
 the Gaussian(R) 94 system (copyright 1995, Gaussian, Inc.),
 the Gaussian 92(TM) system (copyright 1992, Gaussian, Inc.),
 the Gaussian 90(TM) system (copyright 1990, Gaussian, Inc.),
 the Gaussian 88(TM) system (copyright 1988, Gaussian, Inc.),
 the Gaussian 86(TM) system (copyright 1986, Carnegie Mellon
 University), and the Gaussian 82(TM) system (copyright 1983,
 Carnegie Mellon University). Gaussian is a federally registered
 trademark of Gaussian, Inc.
  
 This software contains proprietary and confidential information,
 including trade secrets, belonging to Gaussian, Inc.
  
 This software is provided under written license and may be
 used, copied, transmitted, or stored only in accord with that
 written license.
  
 The following legend is applicable only to US Government
 contracts under FAR:
  
                    RESTRICTED RIGHTS LEGEND
  
 Use, reproduction and disclosure by the US Government is
 subject to restrictions as set forth in subparagraphs (a)
 and (c) of the Commercial Computer Software - Restricted
 Rights clause in FAR 52.227-19.
  
 Gaussian, Inc.
 340 Quinnipiac St., Bldg. 40, Wallingford CT 06492
  
  
 ---------------------------------------------------------------
 Warning -- This program may not be used in any manner that
 competes with the business of Gaussian, Inc. or will provide
 assistance to any competitor of Gaussian, Inc.  The licensee
 of this program is prohibited from giving any competitor of
 Gaussian, Inc. access to this program.  By using this program,
 the user acknowledges that Gaussian, Inc. is engaged in the
 business of creating and licensing software in the field of
 computational chemistry and represents and warrants to the
 licensee that it is not a competitor of Gaussian, Inc. and that
 it will not use this program in any manner prohibited above.
 ---------------------------------------------------------------
  

 Cite this work as:
 Gaussian 16, Revision A.03,
 M. J. Frisch, G. W. Trucks, H. B. Schlegel, G. E. Scuseria, 
 M. A. Robb, J. R. Cheeseman, G. Scalmani, V. Barone, 
 G. A. Petersson, H. Nakatsuji, X. Li, M. Caricato, A. V. Marenich, 
 J. Bloino, B. G. Janesko, R. Gomperts, B. Mennucci, H. P. Hratchian, 
 J. V. Ortiz, A. F. Izmaylov, J. L. Sonnenberg, D. Williams-Young, 
 F. Ding, F. Lipparini, F. Egidi, J. Goings, B. Peng, A. Petrone, 
 T. Henderson, D. Ranasinghe, V. G. Zakrzewski, J. Gao, N. Rega, 
 G. Zheng, W. Liang, M. Hada, M. Ehara, K. Toyota, R. Fukuda, 
 J. Hasegawa, M. Ishida, T. Nakajima, Y. Honda, O. Kitao, H. Nakai, 
 T. Vreven, K. Throssell, J. A. Montgomery, Jr., J. E. Peralta, 
 F. Ogliaro, M. J. Bearpark, J. J. Heyd, E. N. Brothers, K. N. Kudin, 
 V. N. Staroverov, T. A. Keith, R. Kobayashi, J. Normand, 
 K. Raghavachari, A. P. Rendell, J. C. Burant, S. S. Iyengar, 
 J. Tomasi, M. Cossi, J. M. Millam, M. Klene, C. Adamo, R. Cammi, 
 J. W. Ochterski, R. L. Martin, K. Morokuma, O. Farkas, 
 J. B. Foresman, and D. J. Fox, Gaussian, Inc., Wallingford CT, 2016.
 
 ******************************************
 Gaussian 16:  EM64L-G16RevA.03 25-Dec-2016
                 6-Nov-2018 
 ******************************************
 ----------------------------------------------------------------------
 #m062x/6-311+g(2df,2p) Opt=(ModRedun,Loose,maxcycle=1000) Int(Grid=SG1
 ) freq
 ----------------------------------------------------------------------
 1/6=1000,7=-1,18=120,19=15,26=2,38=1/1,3;
 2/9=110,12=2,17=6,18=5,40=1/2;
 3/5=4,6=6,7=214,11=2,25=1,30=1,71=1,74=-55,75=1/1,2,3;
 4//1;
 5/5=2,38=5/2;
 6/7=2,8=2,9=2,10=2,28=1/1;
 7//1,2,3,16;
 1/6=1000,7=-1,18=20,19=15,26=2/3(2);
 2/9=110/2;
 99//99;
 2/9=110/2;
 3/5=4,6=6,7=214,11=2,25=1,30=1,71=1,74=-55,75=1/1,2,3;
 4/5=5,16=3,69=1/1;
 5/5=2,38=5/2;
 7//1,2,3,16;
 1/6=1000,7=-1,18=20,19=15,26=2/3(-5);
 2/9=110/2;
 6/7=2,8=2,9=2,10=2,19=2,28=1/1;
 99/9=1/99;
 -----
 Title
 -----
 Symbolic Z-matrix:
 Charge =  0 Multiplicity = 2
 C                    -6.90323  -1.18842   0.08975 
 C                    -5.99449  -2.08871  -0.46243 
 C                    -6.50201   0.1138    0.3804 
 C                    -5.19318   0.51543   0.11902 
 C                    -4.68609  -1.68702  -0.72504 
 C                    -4.27877  -0.38271  -0.43592 
 H                    -7.20994   0.81657   0.81291 
 H                    -7.92368  -1.50239   0.29525 
 H                    -4.88765   1.53279   0.35221 
 H                    -6.30508  -3.10626  -0.68659 
 H                    -3.98201  -2.39865  -1.15072 
 C                    -2.84874   0.05364  -0.71074 
 C                    -1.92739  -0.18348   0.5039 
 H                    -2.83661   1.11448  -0.97316 
 H                    -2.4563   -0.48957  -1.57413 
 C                    -0.5259    0.35849   0.25728 
 H                    -1.88714  -1.25457   0.73997 
 H                    -2.35616   0.31283   1.37869 
 C                    -0.20951   1.67043   0.61824 
 C                     1.06956   2.17416   0.38886 
 H                    -0.96147   2.30754   1.07832 
 C                     0.45028  -0.44213  -0.34157 
 C                     1.73007   0.0611   -0.5683 
 C                     2.04045   1.36918  -0.2029 
 H                     1.30963   3.19635   0.67127 
 H                     3.03851   1.76207  -0.38122 
 H                     2.48655  -0.56712  -1.03235 
 H                     0.21741  -1.46276  -0.63627 
 O                    -1.90729  -2.32473   1.01235 
 O                    -1.67334  -3.67424   0.47732 
 H                    -0.7459   -3.79427   0.75272 
 
 The following ModRedundant input section has been read:
 

 GradGradGradGradGradGradGradGradGradGradGradGradGradGradGradGradGradGrad
 Berny optimization.
 Initialization pass.
                           ----------------------------
                           !    Initial Parameters    !
                           ! (Angstroms and Degrees)  !
 --------------------------                            --------------------------
 ! Name  Definition              Value          Derivative Info.                !
 --------------------------------------------------------------------------------
 ! R1    R(1,2)                  1.3933         estimate D2E/DX2                !
 ! R2    R(1,3)                  1.3933         estimate D2E/DX2                !
 ! R3    R(1,8)                  1.0873         estimate D2E/DX2                !
 ! R4    R(2,5)                  1.3936         estimate D2E/DX2                !
 ! R5    R(2,10)                 1.0873         estimate D2E/DX2                !
 ! R6    R(3,4)                  1.3938         estimate D2E/DX2                !
 ! R7    R(3,7)                  1.0873         estimate D2E/DX2                !
 ! R8    R(4,6)                  1.3967         estimate D2E/DX2                !
 ! R9    R(4,9)                  1.0875         estimate D2E/DX2                !
 ! R10   R(5,6)                  1.3967         estimate D2E/DX2                !
 ! R11   R(5,11)                 1.0878         estimate D2E/DX2                !
 ! R12   R(6,12)                 1.5202         estimate D2E/DX2                !
 ! R13   R(12,13)                1.5429         estimate D2E/DX2                !
 ! R14   R(12,14)                1.0929         estimate D2E/DX2                !
 ! R15   R(12,15)                1.0929         estimate D2E/DX2                !
 ! R16   R(13,16)                1.5227         estimate D2E/DX2                !
 ! R17   R(13,17)                1.0975         estimate D2E/DX2                !
 ! R18   R(13,18)                1.0934         estimate D2E/DX2                !
 ! R19   R(16,19)                1.397          estimate D2E/DX2                !
 ! R20   R(16,22)                1.3973         estimate D2E/DX2                !
 ! R21   R(17,29)                1.1045         estimate D2E/DX2                !
 ! R22   R(19,20)                1.3937         estimate D2E/DX2                !
 ! R23   R(19,21)                1.0877         estimate D2E/DX2                !
 ! R24   R(20,24)                1.3931         estimate D2E/DX2                !
 ! R25   R(20,25)                1.0873         estimate D2E/DX2                !
 ! R26   R(22,23)                1.3937         estimate D2E/DX2                !
 ! R27   R(22,28)                1.0875         estimate D2E/DX2                !
 ! R28   R(23,24)                1.3932         estimate D2E/DX2                !
 ! R29   R(23,27)                1.0873         estimate D2E/DX2                !
 ! R30   R(24,26)                1.0873         estimate D2E/DX2                !
 ! R31   R(29,30)                1.4704         estimate D2E/DX2                !
 ! R32   R(30,31)                0.9749         estimate D2E/DX2                !
 ! A1    A(2,1,3)              119.9198         estimate D2E/DX2                !
 ! A2    A(2,1,8)              120.0308         estimate D2E/DX2                !
 ! A3    A(3,1,8)              120.0493         estimate D2E/DX2                !
 ! A4    A(1,2,5)              120.0511         estimate D2E/DX2                !
 ! A5    A(1,2,10)             120.0085         estimate D2E/DX2                !
 ! A6    A(5,2,10)             119.9402         estimate D2E/DX2                !
 ! A7    A(1,3,4)              120.0407         estimate D2E/DX2                !
 ! A8    A(1,3,7)              119.9743         estimate D2E/DX2                !
 ! A9    A(4,3,7)              119.9849         estimate D2E/DX2                !
 ! A10   A(3,4,6)              120.2649         estimate D2E/DX2                !
 ! A11   A(3,4,9)              119.5485         estimate D2E/DX2                !
 ! A12   A(6,4,9)              120.1864         estimate D2E/DX2                !
 ! A13   A(2,5,6)              120.2622         estimate D2E/DX2                !
 ! A14   A(2,5,11)             119.5271         estimate D2E/DX2                !
 ! A15   A(6,5,11)             120.2094         estimate D2E/DX2                !
 ! A16   A(4,6,5)              119.4611         estimate D2E/DX2                !
 ! A17   A(4,6,12)             120.2069         estimate D2E/DX2                !
 ! A18   A(5,6,12)             120.3297         estimate D2E/DX2                !
 ! A19   A(6,12,13)            112.044          estimate D2E/DX2                !
 ! A20   A(6,12,14)            109.419          estimate D2E/DX2                !
 ! A21   A(6,12,15)            109.7505         estimate D2E/DX2                !
 ! A22   A(13,12,14)           109.3651         estimate D2E/DX2                !
 ! A23   A(13,12,15)           109.3356         estimate D2E/DX2                !
 ! A24   A(14,12,15)           106.7845         estimate D2E/DX2                !
 ! A25   A(12,13,16)           111.5561         estimate D2E/DX2                !
 ! A26   A(12,13,17)           109.951          estimate D2E/DX2                !
 ! A27   A(12,13,18)           109.0222         estimate D2E/DX2                !
 ! A28   A(16,13,17)           110.391          estimate D2E/DX2                !
 ! A29   A(16,13,18)           109.2053         estimate D2E/DX2                !
 ! A30   A(17,13,18)           106.5758         estimate D2E/DX2                !
 ! A31   A(13,16,19)           120.0562         estimate D2E/DX2                !
 ! A32   A(13,16,22)           120.5612         estimate D2E/DX2                !
 ! A33   A(19,16,22)           119.3797         estimate D2E/DX2                !
 ! A34   A(16,19,20)           120.3153         estimate D2E/DX2                !
 ! A35   A(16,19,21)           120.1863         estimate D2E/DX2                !
 ! A36   A(20,19,21)           119.4981         estimate D2E/DX2                !
 ! A37   A(19,20,24)           120.0439         estimate D2E/DX2                !
 ! A38   A(19,20,25)           119.9782         estimate D2E/DX2                !
 ! A39   A(24,20,25)           119.9779         estimate D2E/DX2                !
 ! A40   A(16,22,23)           120.2867         estimate D2E/DX2                !
 ! A41   A(16,22,28)           120.2817         estimate D2E/DX2                !
 ! A42   A(23,22,28)           119.4315         estimate D2E/DX2                !
 ! A43   A(22,23,24)           120.0607         estimate D2E/DX2                !
 ! A44   A(22,23,27)           119.9777         estimate D2E/DX2                !
 ! A45   A(24,23,27)           119.9615         estimate D2E/DX2                !
 ! A46   A(20,24,23)           119.9125         estimate D2E/DX2                !
 ! A47   A(20,24,26)           120.0379         estimate D2E/DX2                !
 ! A48   A(23,24,26)           120.0495         estimate D2E/DX2                !
 ! A49   A(17,29,30)           142.8089         estimate D2E/DX2                !
 ! A50   A(29,30,31)            99.298          estimate D2E/DX2                !
 ! A51   L(13,17,29,1,-1)      177.1027         estimate D2E/DX2                !
 ! A52   L(13,17,29,1,-2)      182.2241         estimate D2E/DX2                !
 ! D1    D(3,1,2,5)             -0.0639         estimate D2E/DX2                !
 ! D2    D(3,1,2,10)           179.7867         estimate D2E/DX2                !
 ! D3    D(8,1,2,5)           -179.9498         estimate D2E/DX2                !
 ! D4    D(8,1,2,10)            -0.0991         estimate D2E/DX2                !
 ! D5    D(2,1,3,4)              0.0039         estimate D2E/DX2                !
 ! D6    D(2,1,3,7)           -179.8938         estimate D2E/DX2                !
 ! D7    D(8,1,3,4)            179.8897         estimate D2E/DX2                !
 ! D8    D(8,1,3,7)             -0.008          estimate D2E/DX2                !
 ! D9    D(1,2,5,6)              0.0477         estimate D2E/DX2                !
 ! D10   D(1,2,5,11)           179.6353         estimate D2E/DX2                !
 ! D11   D(10,2,5,6)          -179.803          estimate D2E/DX2                !
 ! D12   D(10,2,5,11)           -0.2154         estimate D2E/DX2                !
 ! D13   D(1,3,4,6)              0.0727         estimate D2E/DX2                !
 ! D14   D(1,3,4,9)           -179.7903         estimate D2E/DX2                !
 ! D15   D(7,3,4,6)            179.9704         estimate D2E/DX2                !
 ! D16   D(7,3,4,9)              0.1075         estimate D2E/DX2                !
 ! D17   D(3,4,6,5)             -0.0885         estimate D2E/DX2                !
 ! D18   D(3,4,6,12)          -179.538          estimate D2E/DX2                !
 ! D19   D(9,4,6,5)            179.7735         estimate D2E/DX2                !
 ! D20   D(9,4,6,12)             0.324          estimate D2E/DX2                !
 ! D21   D(2,5,6,4)              0.0284         estimate D2E/DX2                !
 ! D22   D(2,5,6,12)           179.4772         estimate D2E/DX2                !
 ! D23   D(11,5,6,4)          -179.5564         estimate D2E/DX2                !
 ! D24   D(11,5,6,12)           -0.1076         estimate D2E/DX2                !
 ! D25   D(4,6,12,13)           89.1532         estimate D2E/DX2                !
 ! D26   D(4,6,12,14)          -32.3177         estimate D2E/DX2                !
 ! D27   D(4,6,12,15)         -149.1835         estimate D2E/DX2                !
 ! D28   D(5,6,12,13)          -90.2915         estimate D2E/DX2                !
 ! D29   D(5,6,12,14)          148.2377         estimate D2E/DX2                !
 ! D30   D(5,6,12,15)           31.3718         estimate D2E/DX2                !
 ! D31   D(6,12,13,16)        -175.4476         estimate D2E/DX2                !
 ! D32   D(6,12,13,17)          61.736          estimate D2E/DX2                !
 ! D33   D(6,12,13,18)         -54.7627         estimate D2E/DX2                !
 ! D34   D(14,12,13,16)        -53.9458         estimate D2E/DX2                !
 ! D35   D(14,12,13,17)       -176.7622         estimate D2E/DX2                !
 ! D36   D(14,12,13,18)         66.7391         estimate D2E/DX2                !
 ! D37   D(15,12,13,16)         62.6514         estimate D2E/DX2                !
 ! D38   D(15,12,13,17)        -60.1649         estimate D2E/DX2                !
 ! D39   D(15,12,13,18)       -176.6637         estimate D2E/DX2                !
 ! D40   D(12,13,16,19)         90.734          estimate D2E/DX2                !
 ! D41   D(12,13,16,22)        -88.6428         estimate D2E/DX2                !
 ! D42   D(17,13,16,19)       -146.7016         estimate D2E/DX2                !
 ! D43   D(17,13,16,22)         33.9216         estimate D2E/DX2                !
 ! D44   D(18,13,16,19)        -29.8439         estimate D2E/DX2                !
 ! D45   D(18,13,16,22)        150.7794         estimate D2E/DX2                !
 ! D46   D(12,13,29,30)         54.1266         estimate D2E/DX2                !
 ! D47   D(16,13,29,30)        -70.3338         estimate D2E/DX2                !
 ! D48   D(18,13,29,30)        171.1923         estimate D2E/DX2                !
 ! D49   D(13,16,19,20)       -179.677          estimate D2E/DX2                !
 ! D50   D(13,16,19,21)          0.1531         estimate D2E/DX2                !
 ! D51   D(22,16,19,20)         -0.2929         estimate D2E/DX2                !
 ! D52   D(22,16,19,21)        179.5373         estimate D2E/DX2                !
 ! D53   D(13,16,22,23)        179.8051         estimate D2E/DX2                !
 ! D54   D(13,16,22,28)         -0.0912         estimate D2E/DX2                !
 ! D55   D(19,16,22,23)          0.4242         estimate D2E/DX2                !
 ! D56   D(19,16,22,28)       -179.4722         estimate D2E/DX2                !
 ! D57   D(16,19,20,24)         -0.0023         estimate D2E/DX2                !
 ! D58   D(16,19,20,25)        179.9517         estimate D2E/DX2                !
 ! D59   D(21,19,20,24)       -179.8336         estimate D2E/DX2                !
 ! D60   D(21,19,20,25)          0.1204         estimate D2E/DX2                !
 ! D61   D(19,20,24,23)          0.169          estimate D2E/DX2                !
 ! D62   D(19,20,24,26)       -179.9601         estimate D2E/DX2                !
 ! D63   D(25,20,24,23)       -179.7851         estimate D2E/DX2                !
 ! D64   D(25,20,24,26)          0.0859         estimate D2E/DX2                !
 ! D65   D(16,22,23,24)         -0.2606         estimate D2E/DX2                !
 ! D66   D(16,22,23,27)        179.8452         estimate D2E/DX2                !
 ! D67   D(28,22,23,24)        179.6366         estimate D2E/DX2                !
 ! D68   D(28,22,23,27)         -0.2576         estimate D2E/DX2                !
 ! D69   D(22,23,24,20)         -0.0379         estimate D2E/DX2                !
 ! D70   D(22,23,24,26)       -179.9089         estimate D2E/DX2                !
 ! D71   D(27,23,24,20)        179.8563         estimate D2E/DX2                !
 ! D72   D(27,23,24,26)         -0.0147         estimate D2E/DX2                !
 ! D73   D(17,29,30,31)         94.1241         estimate D2E/DX2                !
 --------------------------------------------------------------------------------
 Trust Radius=3.00D-01 FncErr=1.00D-05 GrdErr=1.00D-04 EigMax=2.50D+02 EigMin=1.00D-04
 Number of steps in this run=    186 maximum allowed number of steps=    186.
 GradGradGradGradGradGradGradGradGradGradGradGradGradGradGradGradGradGrad

                          Input orientation:                          
 ---------------------------------------------------------------------
 Center     Atomic      Atomic             Coordinates (Angstroms)
 Number     Number       Type             X           Y           Z
 ---------------------------------------------------------------------
      1          6           0       -6.903230   -1.188420    0.089750
      2          6           0       -5.994490   -2.088710   -0.462430
      3          6           0       -6.502010    0.113800    0.380400
      4          6           0       -5.193180    0.515430    0.119020
      5          6           0       -4.686090   -1.687020   -0.725040
      6          6           0       -4.278770   -0.382710   -0.435920
      7          1           0       -7.209940    0.816570    0.812910
      8          1           0       -7.923680   -1.502390    0.295250
      9          1           0       -4.887650    1.532790    0.352210
     10          1           0       -6.305080   -3.106260   -0.686590
     11          1           0       -3.982010   -2.398650   -1.150720
     12          6           0       -2.848740    0.053640   -0.710740
     13          6           0       -1.927390   -0.183480    0.503900
     14          1           0       -2.836610    1.114480   -0.973160
     15          1           0       -2.456300   -0.489570   -1.574130
     16          6           0       -0.525900    0.358490    0.257280
     17          1           0       -1.887140   -1.254570    0.739970
     18          1           0       -2.356160    0.312830    1.378690
     19          6           0       -0.209510    1.670430    0.618240
     20          6           0        1.069560    2.174160    0.388860
     21          1           0       -0.961470    2.307540    1.078320
     22          6           0        0.450280   -0.442130   -0.341570
     23          6           0        1.730070    0.061100   -0.568300
     24          6           0        2.040450    1.369180   -0.202900
     25          1           0        1.309630    3.196350    0.671270
     26          1           0        3.038510    1.762070   -0.381220
     27          1           0        2.486550   -0.567120   -1.032350
     28          1           0        0.217410   -1.462760   -0.636270
     29          8           0       -1.907290   -2.324730    1.012350
     30          8           0       -1.673340   -3.674240    0.477320
     31          1           0       -0.745900   -3.794270    0.752720
 ---------------------------------------------------------------------
                    Distance matrix (angstroms):
                    1          2          3          4          5
     1  C    0.000000
     2  C    1.393281   0.000000
     3  C    1.393281   2.412258   0.000000
     4  C    2.414173   2.785988   1.393794   0.000000
     5  C    2.414165   1.393639   2.786129   2.412543   0.000000
     6  C    2.795226   2.419676   2.419855   1.396696   1.396683
     7  H    2.153373   3.397714   1.087251   2.153947   3.873380
     8  H    1.087256   2.153979   2.154174   3.399748   3.399569
     9  H    3.396532   3.873499   2.149531   1.087542   3.401216
    10  H    2.153740   1.087254   3.397946   3.873237   2.153334
    11  H    3.396608   2.149391   3.873904   3.401622   1.087819
    12  C    4.315366   3.814061   3.813212   2.529457   2.530999
    13  C    5.093173   4.594018   4.585932   3.361844   3.373626
    14  H    4.792757   4.526972   4.033441   2.665547   3.366087
    15  H    4.799174   4.038801   4.533433   3.371542   2.669607
    16  C    6.564399   6.034256   5.982384   4.671964   4.738802
    17  H    5.058490   4.360261   4.826878   3.801102   3.188634
    18  H    4.958928   4.732289   4.268989   3.110707   3.722050
    19  C    7.297822   6.983192   6.486542   5.140060   5.754706
    20  C    8.658048   8.294429   7.846899   6.484297   7.019757
    21  H    6.964447   6.858004   5.999764   4.694602   5.751644
    22  C    7.403857   6.652886   7.011750   5.742622   5.298971
    23  C    8.748040   8.018835   8.286733   6.972103   6.651887
    24  C    9.306792   8.751264   8.653892   7.290948   7.406708
    25  H    9.328207   9.086655   8.402883   7.055413   7.857840
    26  H   10.381011   9.819888   9.711765   8.340568   8.466633
    27  H    9.476977   8.635281   9.124348   7.840652   7.266043
    28  H    7.162812   6.245777   6.976372   5.810179   4.909428
    29  O    5.205940   4.351538   5.239966   4.434143   3.338701
    30  O    5.803556   4.697805   6.137972   5.483702   3.804126
    31  H    6.718831   5.650949   6.967384   6.225222   4.706312
                    6          7          8          9         10
     6  C    0.000000
     7  H    3.404351   0.000000
     8  H    3.882481   2.480922   0.000000
     9  H    2.158940   2.473509   4.293372   0.000000
    10  H    3.403894   4.296029   2.481184   4.960746   0.000000
    11  H    2.159403   4.961151   4.293119   4.305253   2.472404
    12  C    1.520169   4.682268   5.402616   2.734027   4.683144
    13  C    2.540067   5.385250   6.143171   3.425162   5.396673
    14  H    2.147098   4.733372   5.859621   2.477570   5.470562
    15  H    2.151357   5.477322   5.866228   3.702997   4.737922
    16  C    3.887665   6.722719   7.628333   4.518059   6.803992
    17  H    2.804060   5.712017   6.057970   4.113732   4.998202
    18  H    2.733682   4.912539   5.955346   2.991723   5.616897
    19  C    4.678196   7.054998   8.347426   4.687719   7.853364
    20  C    5.985188   8.400773   9.716180   5.991748   9.133715
    21  H    4.531539   6.429371   7.975032   4.067230   7.808861
    22  C    4.730364   7.848320   8.464803   5.733684   7.269905
    23  C    6.026662   9.077569   9.817592   6.841595   8.637696
    24  C    6.561704   9.322390  10.381616   6.952229   9.482162
    25  H    6.727983   8.846835  10.366946   6.424602   9.977499
    26  H    7.625330  10.361016  11.457920   7.963322  10.540235
    27  H    6.794063   9.967021  10.536135   7.791370   9.157485
    28  H    4.628421   7.903227   8.194306   6.001004   6.726552
    29  O    3.390110   6.166493   6.114526   4.919227   4.778885
    30  O    4.296096   7.136801   6.619428   6.120507   4.809397
    31  H    5.052997   7.940232   7.548677   6.759591   5.783550
                   11         12         13         14         15
    11  H    0.000000
    12  C    2.737080   0.000000
    13  C    3.444736   1.542875   0.000000
    14  H    3.699399   1.092883   2.166353   0.000000
    15  H    2.480253   1.092945   2.166021   1.754644   0.000000
    16  C    4.639933   2.534873   1.522737   2.724864   2.792797
    17  H    3.045014   2.177303   1.097535   3.073875   2.502844
    18  H    4.048880   2.162298   1.093355   2.530746   3.061539
    19  C    5.823949   3.368343   2.530053   3.121424   3.810532
    20  C    6.985647   4.588987   3.814893   4.270385   4.835336
    21  H    6.020009   3.441306   2.732790   3.024585   4.134469
    22  C    4.912015   3.356428   2.536737   3.691285   3.157477
    23  C    6.246394   4.581031   3.819221   4.704050   4.340579
    24  C    7.166933   5.088490   4.319036   4.944076   5.055293
    25  H    7.913604   5.392459   4.682901   4.922361   5.728006
    26  H    8.197037   6.138976   5.406363   5.940269   6.056885
    27  H    6.723896   5.380901   4.689361   5.582769   4.973058
    28  H    4.333091   3.421446   2.745307   4.010324   2.995898
    29  O    2.998133   3.084155   2.200881   4.078486   3.218556
    30  O    3.099613   4.085357   3.500093   5.137016   3.868281
    31  H    4.005402   4.622777   3.807313   5.607634   4.388706
                   16         17         18         19         20
    16  C    0.000000
    17  H    2.165162   0.000000
    18  H    2.146974   1.756327   0.000000
    19  C    1.396990   3.374150   2.651314   0.000000
    20  C    2.420633   4.541095   4.022421   1.393693   0.000000
    21  H    2.159311   3.695940   2.452397   1.087670   2.149006
    22  C    1.397334   2.700615   3.377183   2.412357   2.786038
    23  C    2.420625   4.065313   4.533367   2.785640   2.411939
    24  C    2.796321   4.816537   4.790353   2.413989   1.393126
    25  H    3.404997   5.480397   4.717324   2.153841   1.087318
    26  H    3.883650   5.883809   5.856624   3.399552   2.153974
    27  H    3.405107   4.768949   5.480809   3.872960   3.397398
    28  H    2.160531   2.523194   3.719684   3.401902   3.873530
    29  O    3.110955   1.104463   2.700447   4.358794   5.430505
    30  O    4.198565   2.443256   4.144326   5.543298   6.460272
    31  H    4.187992   2.784361   4.455676   5.492608   6.249036
                   21         22         23         24         25
    21  H    0.000000
    22  C    3.401442   0.000000
    23  C    3.873272   1.393739   0.000000
    24  C    3.396111   2.414273   1.393171   0.000000
    25  H    2.472563   3.873353   3.397513   2.153328   0.000000
    26  H    4.292742   3.399854   2.154139   1.087329   2.480710
    27  H    4.960589   2.153879   1.087320   2.153195   4.295482
    28  H    4.306360   1.087549   2.148234   3.395757   4.960838
    29  O    4.728303   3.306874   4.628286   5.541341   6.399003
    30  O    6.053896   3.953085   5.160357   6.300081   7.492712
    31  H    6.114292   3.723595   4.768585   5.944592   7.287016
                   26         27         28         29         30
    26  H    0.000000
    27  H    2.480677   0.000000
    28  H    4.292224   2.471446   0.000000
    29  O    6.565433   5.155174   2.824056   0.000000
    30  O    7.245142   5.407216   3.115391   1.470431   0.000000
    31  H    6.817660   4.904050   2.879791   1.890974   0.974883
                   31
    31  H    0.000000
 Stoichiometry    C14H15O2(2)
 Framework group  C1[X(C14H15O2)]
 Deg. of freedom    87
 Full point group                 C1      NOp   1
 Largest Abelian subgroup         C1      NOp   1
 Largest concise Abelian subgroup C1      NOp   1
                         Standard orientation:                         
 ---------------------------------------------------------------------
 Center     Atomic      Atomic             Coordinates (Angstroms)
 Number     Number       Type             X           Y           Z
 ---------------------------------------------------------------------
      1          6           0       -4.627293   -0.490010   -0.097513
      2          6           0       -3.996550    0.614915    0.470412
      3          6           0       -3.891102   -1.636121   -0.390233
      4          6           0       -2.525336   -1.677317   -0.115190
      5          6           0       -2.631195    0.573536    0.746679
      6          6           0       -1.888584   -0.572980    0.455551
      7          1           0       -4.382063   -2.498235   -0.835016
      8          1           0       -5.692338   -0.457073   -0.313661
      9          1           0       -1.957761   -2.574773   -0.350093
     10          1           0       -4.568960    1.511283    0.696225
     11          1           0       -2.146233    1.443223    1.184634
     12          6           0       -0.396894   -0.615519    0.745314
     13          6           0        0.440541   -0.131725   -0.456813
     14          1           0       -0.105633   -1.637072    1.002197
     15          1           0       -0.171991    0.005270    1.616272
     16          6           0        1.933113   -0.283430   -0.196157
     17          1           0        0.196773    0.913421   -0.686661
     18          1           0        0.168259   -0.716872   -1.339360
     19          6           0        2.590842   -1.460887   -0.560259
     20          6           0        3.955416   -1.608150   -0.318118
     21          1           0        2.040253   -2.271190   -1.032792
     22          6           0        2.654903    0.742967    0.418718
     23          6           0        4.020064    0.596399    0.658220
     24          6           0        4.671019   -0.578898    0.289627
     25          1           0        4.461683   -2.527262   -0.603054
     26          1           0        5.735758   -0.693637    0.477905
     27          1           0        4.577335    1.399302    1.134730
     28          1           0        2.155865    1.662387    0.716021
     29          8           0       -0.104597    1.941908   -0.953551
     30          8           0       -0.243631    3.300509   -0.408538
     31          1           0        0.621211    3.665203   -0.672058
 ---------------------------------------------------------------------
 Rotational constants (GHZ):           0.9874481           0.2627580           0.2195371
 Standard basis: 6-311+G(2df,2p) (5D, 7F)
 There are   759 symmetry adapted cartesian basis functions of A   symmetry.
 There are   679 symmetry adapted basis functions of A   symmetry.
   679 basis functions,   997 primitive gaussians,   759 cartesian basis functions
    58 alpha electrons       57 beta electrons
       nuclear repulsion energy      1000.9179212349 Hartrees.
 NAtoms=   31 NActive=   31 NUniq=   31 SFac= 1.00D+00 NAtFMM=   60 NAOKFM=F Big=F
 Integral buffers will be    131072 words long.
 Raffenetti 2 integral format.
 Two-electron integral symmetry is turned on.
 One-electron integrals computed using PRISM.
 NBasis=   679 RedAO= T EigKep=  1.20D-06  NBF=   679
 NBsUse=   679 1.00D-06 EigRej= -1.00D+00 NBFU=   679
 ExpMin= 4.38D-02 ExpMax= 8.59D+03 ExpMxC= 1.30D+03 IAcc=2 IRadAn=         4 AccDes= 0.00D+00
 Harris functional with IExCor= 1009 and IRadAn=       4 diagonalized for initial guess.
 HarFok:  IExCor= 1009 AccDes= 0.00D+00 IRadAn=         4 IDoV= 1 UseB2=F ITyADJ=14
 ICtDFT=  3500011 ScaDFX=  1.000000  1.000000  1.000000  1.000000
 FoFCou: FMM=F IPFlag=           0 FMFlag=      100000 FMFlg1=           0
         NFxFlg=           0 DoJE=T BraDBF=F KetDBF=T FulRan=T
         wScrn=  0.000000 ICntrl=       500 IOpCl=  0 I1Cent=   200000004 NGrid=           0
         NMat0=    1 NMatS0=      1 NMatT0=    0 NMatD0=    1 NMtDS0=    0 NMtDT0=    0
 Petite list used in FoFCou.
 Initial guess <Sx>= 0.0000 <Sy>= 0.0000 <Sz>= 0.5000 <S**2>= 0.7500 S= 0.5000
 Requested convergence on RMS density matrix=1.00D-08 within 128 cycles.
 Requested convergence on MAX density matrix=1.00D-06.
 Requested convergence on             energy=1.00D-06.
 No special actions if energy rises.
 Restarting incremental Fock formation.
 SCF Done:  E(UM062X) =  -692.676140512     A.U. after   22 cycles
            NFock= 22  Conv=0.51D-08     -V/T= 2.0040
 <Sx>= 0.0000 <Sy>= 0.0000 <Sz>= 0.5000 <S**2>= 0.7620 S= 0.5060
 <L.S>= 0.000000000000E+00
 Annihilation of the first spin contaminant:
 S**2 before annihilation     0.7620,   after     0.7501

 **********************************************************************

            Population analysis using the SCF density.

 **********************************************************************

 Orbital symmetries:
 Alpha Orbitals:
       Occupied  (A) (A) (A) (A) (A) (A) (A) (A) (A) (A) (A) (A)
                 (A) (A) (A) (A) (A) (A) (A) (A) (A) (A) (A) (A)
                 (A) (A) (A) (A) (A) (A) (A) (A) (A) (A) (A) (A)
                 (A) (A) (A) (A) (A) (A) (A) (A) (A) (A) (A) (A)
                 (A) (A) (A) (A) (A) (A) (A) (A) (A) (A)
       Virtual   (A) (A) (A) (A) (A) (A) (A) (A) (A) (A) (A) (A)
                 (A) (A) (A) (A) (A) (A) (A) (A) (A) (A) (A) (A)
                 (A) (A) (A) (A) (A) (A) (A) (A) (A) (A) (A) (A)
                 (A) (A) (A) (A) (A) (A) (A) (A) (A) (A) (A) (A)
                 (A) (A) (A) (A) (A) (A) (A) (A) (A) (A) (A) (A)
                 (A) (A) (A) (A) (A) (A) (A) (A) (A) (A) (A) (A)
                 (A) (A) (A) (A) (A) (A) (A) (A) (A) (A) (A) (A)
                 (A) (A) (A) (A) (A) (A) (A) (A) (A) (A) (A) (A)
                 (A) (A) (A) (A) (A) (A) (A) (A) (A) (A) (A) (A)
                 (A) (A) (A) (A) (A) (A) (A) (A) (A) (A) (A) (A)
                 (A) (A) (A) (A) (A) (A) (A) (A) (A) (A) (A) (A)
                 (A) (A) (A) (A) (A) (A) (A) (A) (A) (A) (A) (A)
                 (A) (A) (A) (A) (A) (A) (A) (A) (A) (A) (A) (A)
                 (A) (A) (A) (A) (A) (A) (A) (A) (A) (A) (A) (A)
                 (A) (A) (A) (A) (A) (A) (A) (A) (A) (A) (A) (A)
                 (A) (A) (A) (A) (A) (A) (A) (A) (A) (A) (A) (A)
                 (A) (A) (A) (A) (A) (A) (A) (A) (A) (A) (A) (A)
                 (A) (A) (A) (A) (A) (A) (A) (A) (A) (A) (A) (A)
                 (A) (A) (A) (A) (A) (A) (A) (A) (A) (A) (A) (A)
                 (A) (A) (A) (A) (A) (A) (A) (A) (A) (A) (A) (A)
                 (A) (A) (A) (A) (A) (A) (A) (A) (A) (A) (A) (A)
                 (A) (A) (A) (A) (A) (A) (A) (A) (A) (A) (A) (A)
                 (A) (A) (A) (A) (A) (A) (A) (A) (A) (A) (A) (A)
                 (A) (A) (A) (A) (A) (A) (A) (A) (A) (A) (A) (A)
                 (A) (A) (A) (A) (A) (A) (A) (A) (A) (A) (A) (A)
                 (A) (A) (A) (A) (A) (A) (A) (A) (A) (A) (A) (A)
                 (A) (A) (A) (A) (A) (A) (A) (A) (A) (A) (A) (A)
                 (A) (A) (A) (A) (A) (A) (A) (A) (A) (A) (A) (A)
                 (A) (A) (A) (A) (A) (A) (A) (A) (A) (A) (A) (A)
                 (A) (A) (A) (A) (A) (A) (A) (A) (A) (A) (A) (A)
                 (A) (A) (A) (A) (A) (A) (A) (A) (A) (A) (A) (A)
                 (A) (A) (A) (A) (A) (A) (A) (A) (A) (A) (A) (A)
                 (A) (A) (A) (A) (A) (A) (A) (A) (A) (A) (A) (A)
                 (A) (A) (A) (A) (A) (A) (A) (A) (A) (A) (A) (A)
                 (A) (A) (A) (A) (A) (A) (A) (A) (A) (A) (A) (A)
                 (A) (A) (A) (A) (A) (A) (A) (A) (A) (A) (A) (A)
                 (A) (A) (A) (A) (A) (A) (A) (A) (A) (A) (A) (A)
                 (A) (A) (A) (A) (A) (A) (A) (A) (A) (A) (A) (A)
                 (A) (A) (A) (A) (A) (A) (A) (A) (A) (A) (A) (A)
                 (A) (A) (A) (A) (A) (A) (A) (A) (A) (A) (A) (A)
                 (A) (A) (A) (A) (A) (A) (A) (A) (A) (A) (A) (A)
                 (A) (A) (A) (A) (A) (A) (A) (A) (A) (A) (A) (A)
                 (A) (A) (A) (A) (A) (A) (A) (A) (A) (A) (A) (A)
                 (A) (A) (A) (A) (A) (A) (A) (A) (A) (A) (A) (A)
                 (A) (A) (A) (A) (A) (A) (A) (A) (A) (A) (A) (A)
                 (A) (A) (A) (A) (A) (A) (A) (A) (A) (A) (A) (A)
                 (A) (A) (A) (A) (A) (A) (A) (A) (A) (A) (A) (A)
                 (A) (A) (A) (A) (A) (A) (A) (A) (A) (A) (A) (A)
                 (A) (A) (A) (A) (A) (A) (A) (A) (A) (A) (A) (A)
                 (A) (A) (A) (A) (A) (A) (A) (A) (A) (A) (A) (A)
                 (A) (A) (A) (A) (A) (A) (A) (A) (A) (A) (A) (A)
                 (A) (A) (A) (A) (A) (A) (A) (A) (A)
 Beta  Orbitals:
       Occupied  (A) (A) (A) (A) (A) (A) (A) (A) (A) (A) (A) (A)
                 (A) (A) (A) (A) (A) (A) (A) (A) (A) (A) (A) (A)
                 (A) (A) (A) (A) (A) (A) (A) (A) (A) (A) (A) (A)
                 (A) (A) (A) (A) (A) (A) (A) (A) (A) (A) (A) (A)
                 (A) (A) (A) (A) (A) (A) (A) (A) (A)
       Virtual   (A) (A) (A) (A) (A) (A) (A) (A) (A) (A) (A) (A)
                 (A) (A) (A) (A) (A) (A) (A) (A) (A) (A) (A) (A)
                 (A) (A) (A) (A) (A) (A) (A) (A) (A) (A) (A) (A)
                 (A) (A) (A) (A) (A) (A) (A) (A) (A) (A) (A) (A)
                 (A) (A) (A) (A) (A) (A) (A) (A) (A) (A) (A) (A)
                 (A) (A) (A) (A) (A) (A) (A) (A) (A) (A) (A) (A)
                 (A) (A) (A) (A) (A) (A) (A) (A) (A) (A) (A) (A)
                 (A) (A) (A) (A) (A) (A) (A) (A) (A) (A) (A) (A)
                 (A) (A) (A) (A) (A) (A) (A) (A) (A) (A) (A) (A)
                 (A) (A) (A) (A) (A) (A) (A) (A) (A) (A) (A) (A)
                 (A) (A) (A) (A) (A) (A) (A) (A) (A) (A) (A) (A)
                 (A) (A) (A) (A) (A) (A) (A) (A) (A) (A) (A) (A)
                 (A) (A) (A) (A) (A) (A) (A) (A) (A) (A) (A) (A)
                 (A) (A) (A) (A) (A) (A) (A) (A) (A) (A) (A) (A)
                 (A) (A) (A) (A) (A) (A) (A) (A) (A) (A) (A) (A)
                 (A) (A) (A) (A) (A) (A) (A) (A) (A) (A) (A) (A)
                 (A) (A) (A) (A) (A) (A) (A) (A) (A) (A) (A) (A)
                 (A) (A) (A) (A) (A) (A) (A) (A) (A) (A) (A) (A)
                 (A) (A) (A) (A) (A) (A) (A) (A) (A) (A) (A) (A)
                 (A) (A) (A) (A) (A) (A) (A) (A) (A) (A) (A) (A)
                 (A) (A) (A) (A) (A) (A) (A) (A) (A) (A) (A) (A)
                 (A) (A) (A) (A) (A) (A) (A) (A) (A) (A) (A) (A)
                 (A) (A) (A) (A) (A) (A) (A) (A) (A) (A) (A) (A)
                 (A) (A) (A) (A) (A) (A) (A) (A) (A) (A) (A) (A)
                 (A) (A) (A) (A) (A) (A) (A) (A) (A) (A) (A) (A)
                 (A) (A) (A) (A) (A) (A) (A) (A) (A) (A) (A) (A)
                 (A) (A) (A) (A) (A) (A) (A) (A) (A) (A) (A) (A)
                 (A) (A) (A) (A) (A) (A) (A) (A) (A) (A) (A) (A)
                 (A) (A) (A) (A) (A) (A) (A) (A) (A) (A) (A) (A)
                 (A) (A) (A) (A) (A) (A) (A) (A) (A) (A) (A) (A)
                 (A) (A) (A) (A) (A) (A) (A) (A) (A) (A) (A) (A)
                 (A) (A) (A) (A) (A) (A) (A) (A) (A) (A) (A) (A)
                 (A) (A) (A) (A) (A) (A) (A) (A) (A) (A) (A) (A)
                 (A) (A) (A) (A) (A) (A) (A) (A) (A) (A) (A) (A)
                 (A) (A) (A) (A) (A) (A) (A) (A) (A) (A) (A) (A)
                 (A) (A) (A) (A) (A) (A) (A) (A) (A) (A) (A) (A)
                 (A) (A) (A) (A) (A) (A) (A) (A) (A) (A) (A) (A)
                 (A) (A) (A) (A) (A) (A) (A) (A) (A) (A) (A) (A)
                 (A) (A) (A) (A) (A) (A) (A) (A) (A) (A) (A) (A)
                 (A) (A) (A) (A) (A) (A) (A) (A) (A) (A) (A) (A)
                 (A) (A) (A) (A) (A) (A) (A) (A) (A) (A) (A) (A)
                 (A) (A) (A) (A) (A) (A) (A) (A) (A) (A) (A) (A)
                 (A) (A) (A) (A) (A) (A) (A) (A) (A) (A) (A) (A)
                 (A) (A) (A) (A) (A) (A) (A) (A) (A) (A) (A) (A)
                 (A) (A) (A) (A) (A) (A) (A) (A) (A) (A) (A) (A)
                 (A) (A) (A) (A) (A) (A) (A) (A) (A) (A) (A) (A)
                 (A) (A) (A) (A) (A) (A) (A) (A) (A) (A) (A) (A)
                 (A) (A) (A) (A) (A) (A) (A) (A) (A) (A) (A) (A)
                 (A) (A) (A) (A) (A) (A) (A) (A) (A) (A) (A) (A)
                 (A) (A) (A) (A) (A) (A) (A) (A) (A) (A) (A) (A)
                 (A) (A) (A) (A) (A) (A) (A) (A) (A) (A) (A) (A)
                 (A) (A) (A) (A) (A) (A) (A) (A) (A) (A)
 The electronic state is 2-A.
 Alpha  occ. eigenvalues --  -19.71298 -19.70665 -10.55953 -10.55365 -10.55035
 Alpha  occ. eigenvalues --  -10.55030 -10.54949 -10.54941 -10.54872 -10.54818
 Alpha  occ. eigenvalues --  -10.54764 -10.54099 -10.54002 -10.53951 -10.53816
 Alpha  occ. eigenvalues --  -10.53749  -1.25235  -1.04780  -0.97172  -0.96077
 Alpha  occ. eigenvalues --   -0.90283  -0.85797  -0.84947  -0.83913  -0.80744
 Alpha  occ. eigenvalues --   -0.74083  -0.69887  -0.68655  -0.68169  -0.66384
 Alpha  occ. eigenvalues --   -0.63162  -0.59625  -0.58547  -0.57982  -0.54227
 Alpha  occ. eigenvalues --   -0.53530  -0.52927  -0.52346  -0.52234  -0.49475
 Alpha  occ. eigenvalues --   -0.49317  -0.48572  -0.48137  -0.46722  -0.45310
 Alpha  occ. eigenvalues --   -0.43930  -0.42446  -0.41705  -0.41044  -0.40861
 Alpha  occ. eigenvalues --   -0.40652  -0.39682  -0.38432  -0.33909  -0.31560
 Alpha  occ. eigenvalues --   -0.30792  -0.30472  -0.29251
 Alpha virt. eigenvalues --    0.00100   0.00730   0.00939   0.01229   0.01633
 Alpha virt. eigenvalues --    0.01957   0.02194   0.02558   0.02972   0.03245
 Alpha virt. eigenvalues --    0.04100   0.04548   0.04704   0.05348   0.06237
 Alpha virt. eigenvalues --    0.06671   0.06711   0.06831   0.07684   0.08418
 Alpha virt. eigenvalues --    0.09227   0.09549   0.09948   0.10283   0.10836
 Alpha virt. eigenvalues --    0.11793   0.12075   0.12311   0.13073   0.13609
 Alpha virt. eigenvalues --    0.14137   0.14786   0.15019   0.15366   0.15432
 Alpha virt. eigenvalues --    0.15507   0.15901   0.16736   0.16954   0.17093
 Alpha virt. eigenvalues --    0.18081   0.18155   0.18444   0.18565   0.18925
 Alpha virt. eigenvalues --    0.19375   0.19805   0.20213   0.20431   0.21083
 Alpha virt. eigenvalues --    0.21472   0.21539   0.21818   0.22004   0.22574
 Alpha virt. eigenvalues --    0.22982   0.23307   0.23474   0.23730   0.24000
 Alpha virt. eigenvalues --    0.24293   0.24757   0.24841   0.24905   0.25162
 Alpha virt. eigenvalues --    0.25518   0.25751   0.26397   0.26859   0.27046
 Alpha virt. eigenvalues --    0.27522   0.27884   0.28251   0.29088   0.29401
 Alpha virt. eigenvalues --    0.29584   0.30388   0.31160   0.31516   0.32220
 Alpha virt. eigenvalues --    0.32525   0.33333   0.34351   0.35245   0.35333
 Alpha virt. eigenvalues --    0.35616   0.36026   0.36765   0.37146   0.38401
 Alpha virt. eigenvalues --    0.38790   0.39990   0.40153   0.41082   0.42168
 Alpha virt. eigenvalues --    0.42379   0.45842   0.46403   0.49686   0.49948
 Alpha virt. eigenvalues --    0.52045   0.52595   0.53277   0.53367   0.53650
 Alpha virt. eigenvalues --    0.54473   0.54863   0.55289   0.55479   0.55755
 Alpha virt. eigenvalues --    0.56487   0.56726   0.57246   0.57424   0.57652
 Alpha virt. eigenvalues --    0.58175   0.58526   0.59114   0.59399   0.60264
 Alpha virt. eigenvalues --    0.61390   0.62382   0.62544   0.63502   0.64555
 Alpha virt. eigenvalues --    0.65428   0.66305   0.66814   0.66947   0.67053
 Alpha virt. eigenvalues --    0.67432   0.67604   0.67912   0.68122   0.68357
 Alpha virt. eigenvalues --    0.68483   0.68759   0.69467   0.69863   0.70668
 Alpha virt. eigenvalues --    0.71183   0.71381   0.71939   0.72058   0.72240
 Alpha virt. eigenvalues --    0.72491   0.73346   0.73693   0.73923   0.74448
 Alpha virt. eigenvalues --    0.74530   0.74889   0.75160   0.75282   0.76271
 Alpha virt. eigenvalues --    0.76366   0.78362   0.78811   0.79296   0.79751
 Alpha virt. eigenvalues --    0.80521   0.81386   0.82044   0.82124   0.83110
 Alpha virt. eigenvalues --    0.83713   0.84245   0.84924   0.85177   0.85597
 Alpha virt. eigenvalues --    0.86019   0.86324   0.87810   0.88133   0.89679
 Alpha virt. eigenvalues --    0.90882   0.91427   0.92970   0.93983   0.95727
 Alpha virt. eigenvalues --    0.97643   0.98948   0.99866   1.00635   1.01420
 Alpha virt. eigenvalues --    1.02172   1.02686   1.03182   1.03624   1.05514
 Alpha virt. eigenvalues --    1.05861   1.06264   1.06739   1.07276   1.08430
 Alpha virt. eigenvalues --    1.08831   1.09399   1.11073   1.11789   1.12722
 Alpha virt. eigenvalues --    1.13382   1.14121   1.14269   1.15365   1.15647
 Alpha virt. eigenvalues --    1.16773   1.17113   1.18209   1.18754   1.19864
 Alpha virt. eigenvalues --    1.20392   1.20737   1.22386   1.23108   1.24068
 Alpha virt. eigenvalues --    1.24591   1.24936   1.26506   1.27445   1.28840
 Alpha virt. eigenvalues --    1.29512   1.30261   1.31254   1.31703   1.32374
 Alpha virt. eigenvalues --    1.32764   1.33374   1.34142   1.34695   1.35266
 Alpha virt. eigenvalues --    1.36152   1.36416   1.37357   1.37875   1.38679
 Alpha virt. eigenvalues --    1.39013   1.39266   1.39481   1.41024   1.41724
 Alpha virt. eigenvalues --    1.42225   1.42819   1.43189   1.44370   1.45785
 Alpha virt. eigenvalues --    1.46811   1.47034   1.47580   1.48845   1.49220
 Alpha virt. eigenvalues --    1.49663   1.50392   1.50974   1.51760   1.51920
 Alpha virt. eigenvalues --    1.52471   1.53391   1.55477   1.56455   1.57271
 Alpha virt. eigenvalues --    1.58800   1.60221   1.62378   1.63463   1.63984
 Alpha virt. eigenvalues --    1.65509   1.66534   1.68599   1.69007   1.70289
 Alpha virt. eigenvalues --    1.71888   1.72053   1.72383   1.73770   1.74004
 Alpha virt. eigenvalues --    1.75219   1.75897   1.76669   1.77698   1.77833
 Alpha virt. eigenvalues --    1.79231   1.79825   1.83540   1.85062   1.86335
 Alpha virt. eigenvalues --    1.87215   1.91455   1.96722   1.97031   1.99074
 Alpha virt. eigenvalues --    2.02793   2.03232   2.03850   2.04359   2.05603
 Alpha virt. eigenvalues --    2.06696   2.09167   2.14989   2.20565   2.22487
 Alpha virt. eigenvalues --    2.27108   2.29826   2.32829   2.47383   2.47996
 Alpha virt. eigenvalues --    2.52727   2.54104   2.55305   2.57911   2.58797
 Alpha virt. eigenvalues --    2.60032   2.61848   2.62245   2.64050   2.64650
 Alpha virt. eigenvalues --    2.66494   2.67970   2.68747   2.69080   2.69742
 Alpha virt. eigenvalues --    2.72555   2.73102   2.73745   2.75446   2.75845
 Alpha virt. eigenvalues --    2.76735   2.77609   2.77719   2.77963   2.78914
 Alpha virt. eigenvalues --    2.79160   2.80019   2.80643   2.81379   2.82174
 Alpha virt. eigenvalues --    2.82379   2.82761   2.83291   2.84039   2.84638
 Alpha virt. eigenvalues --    2.85495   2.85793   2.86018   2.87071   2.87402
 Alpha virt. eigenvalues --    2.88231   2.88556   2.88790   2.89551   2.89862
 Alpha virt. eigenvalues --    2.90447   2.91238   2.91637   2.92052   2.93091
 Alpha virt. eigenvalues --    2.93481   2.94461   2.95893   2.96658   2.97537
 Alpha virt. eigenvalues --    2.97978   2.99079   3.00473   3.02629   3.03481
 Alpha virt. eigenvalues --    3.05994   3.07514   3.07738   3.10593   3.11536
 Alpha virt. eigenvalues --    3.12547   3.13442   3.13806   3.14549   3.15027
 Alpha virt. eigenvalues --    3.15806   3.16071   3.17641   3.17777   3.18233
 Alpha virt. eigenvalues --    3.19600   3.20196   3.20277   3.21426   3.21669
 Alpha virt. eigenvalues --    3.22179   3.22801   3.23323   3.24432   3.25841
 Alpha virt. eigenvalues --    3.26486   3.29129   3.29664   3.29895   3.30528
 Alpha virt. eigenvalues --    3.31101   3.31670   3.32181   3.34029   3.34790
 Alpha virt. eigenvalues --    3.35024   3.36219   3.36394   3.37415   3.38817
 Alpha virt. eigenvalues --    3.39154   3.40457   3.41003   3.42085   3.42217
 Alpha virt. eigenvalues --    3.42424   3.43872   3.44693   3.45040   3.45230
 Alpha virt. eigenvalues --    3.45701   3.46609   3.47776   3.48695   3.49415
 Alpha virt. eigenvalues --    3.50157   3.50762   3.52169   3.52743   3.55388
 Alpha virt. eigenvalues --    3.56430   3.56654   3.58218   3.58875   3.59703
 Alpha virt. eigenvalues --    3.60512   3.61999   3.63292   3.63388   3.65953
 Alpha virt. eigenvalues --    3.67442   3.67866   3.69339   3.70885   3.72261
 Alpha virt. eigenvalues --    3.72764   3.72853   3.73197   3.73926   3.76352
 Alpha virt. eigenvalues --    3.77105   3.77791   3.78650   3.79591   3.79967
 Alpha virt. eigenvalues --    3.80374   3.80914   3.82661   3.82717   3.83212
 Alpha virt. eigenvalues --    3.84048   3.86100   3.87522   3.88578   3.89369
 Alpha virt. eigenvalues --    3.89817   3.90364   3.91180   3.91788   3.93937
 Alpha virt. eigenvalues --    3.94822   3.97299   3.98622   3.99012   3.99622
 Alpha virt. eigenvalues --    4.01424   4.02588   4.05051   4.05872   4.07081
 Alpha virt. eigenvalues --    4.07704   4.08052   4.09246   4.09703   4.11386
 Alpha virt. eigenvalues --    4.11429   4.12175   4.12776   4.13334   4.15132
 Alpha virt. eigenvalues --    4.15494   4.16609   4.18616   4.21419   4.23363
 Alpha virt. eigenvalues --    4.24442   4.25636   4.26507   4.28202   4.28989
 Alpha virt. eigenvalues --    4.29607   4.31175   4.31864   4.34317   4.35555
 Alpha virt. eigenvalues --    4.36588   4.36894   4.37382   4.38414   4.39088
 Alpha virt. eigenvalues --    4.39605   4.40314   4.40698   4.41990   4.43584
 Alpha virt. eigenvalues --    4.44657   4.44860   4.45915   4.46084   4.46901
 Alpha virt. eigenvalues --    4.47070   4.48768   4.49854   4.50512   4.50640
 Alpha virt. eigenvalues --    4.52876   4.56113   4.57001   4.57787   4.58893
 Alpha virt. eigenvalues --    4.61492   4.62231   4.63045   4.65286   4.66654
 Alpha virt. eigenvalues --    4.67458   4.68041   4.69546   4.71533   4.72847
 Alpha virt. eigenvalues --    4.75119   4.75821   4.77784   4.78117   4.79455
 Alpha virt. eigenvalues --    4.82190   4.89424   4.90786   4.93294   4.95611
 Alpha virt. eigenvalues --    4.97425   4.99667   5.02261   5.04109   5.04867
 Alpha virt. eigenvalues --    5.05353   5.05941   5.06302   5.07428   5.08137
 Alpha virt. eigenvalues --    5.09650   5.10236   5.12347   5.17611   5.18535
 Alpha virt. eigenvalues --    5.21064   5.22925   5.25741   5.26551   5.28893
 Alpha virt. eigenvalues --    5.34712   5.36981   5.37137   5.39682   5.44111
 Alpha virt. eigenvalues --    5.46342   5.47751   5.50406   5.54243   5.61521
 Alpha virt. eigenvalues --    5.65774   5.67732   5.68344   5.69201   5.70704
 Alpha virt. eigenvalues --    5.73405   5.74553   5.74974   5.76154   5.78941
 Alpha virt. eigenvalues --    5.81475   5.89918   5.99251   6.13889   6.15358
 Alpha virt. eigenvalues --    6.48623   6.49884   6.58192   6.75188   6.76245
 Alpha virt. eigenvalues --    6.87309   6.94208   7.01102   7.06044   7.22799
 Alpha virt. eigenvalues --    7.27696   7.41659   7.52601   7.78421   8.10750
 Alpha virt. eigenvalues --   23.90356  23.94036  24.46169  24.47446  24.47732
 Alpha virt. eigenvalues --   24.49754  24.51885  24.60797  24.71298  24.72310
 Alpha virt. eigenvalues --   24.73723  24.74707  25.17849  25.19147  49.98955
 Alpha virt. eigenvalues --   50.04966
  Beta  occ. eigenvalues --  -19.70933 -19.69423 -10.55967 -10.55033 -10.55027
  Beta  occ. eigenvalues --  -10.55013 -10.54936 -10.54933 -10.54873 -10.54828
  Beta  occ. eigenvalues --  -10.54760 -10.54098 -10.54002 -10.53951 -10.53816
  Beta  occ. eigenvalues --  -10.53750  -1.22629  -1.01167  -0.96950  -0.96056
  Beta  occ. eigenvalues --   -0.89707  -0.85715  -0.84909  -0.83912  -0.80340
  Beta  occ. eigenvalues --   -0.73326  -0.69678  -0.68641  -0.67450  -0.66191
  Beta  occ. eigenvalues --   -0.62051  -0.59265  -0.58487  -0.56471  -0.53983
  Beta  occ. eigenvalues --   -0.52646  -0.52338  -0.52183  -0.49604  -0.49192
  Beta  occ. eigenvalues --   -0.48525  -0.47875  -0.47170  -0.45911  -0.45123
  Beta  occ. eigenvalues --   -0.43849  -0.42152  -0.41188  -0.40886  -0.39746
  Beta  occ. eigenvalues --   -0.39193  -0.38112  -0.36545  -0.31521  -0.30943
  Beta  occ. eigenvalues --   -0.30494  -0.29288
  Beta virt. eigenvalues --   -0.10398   0.00246   0.00831   0.00985   0.01308
  Beta virt. eigenvalues --    0.01715   0.01971   0.02251   0.02603   0.03030
  Beta virt. eigenvalues --    0.03288   0.04304   0.04602   0.04783   0.05652
  Beta virt. eigenvalues --    0.06355   0.06702   0.06850   0.07002   0.08127
  Beta virt. eigenvalues --    0.08512   0.09281   0.09576   0.09979   0.10302
  Beta virt. eigenvalues --    0.10919   0.11915   0.12145   0.12328   0.13292
  Beta virt. eigenvalues --    0.13671   0.14192   0.14782   0.15062   0.15423
  Beta virt. eigenvalues --    0.15469   0.15546   0.15970   0.16769   0.17008
  Beta virt. eigenvalues --    0.17167   0.18128   0.18201   0.18497   0.18598
  Beta virt. eigenvalues --    0.18970   0.19408   0.19844   0.20256   0.20497
  Beta virt. eigenvalues --    0.21110   0.21502   0.21559   0.21836   0.22069
  Beta virt. eigenvalues --    0.22601   0.23019   0.23336   0.23576   0.23747
  Beta virt. eigenvalues --    0.24000   0.24310   0.24821   0.24841   0.24967
  Beta virt. eigenvalues --    0.25206   0.25525   0.25790   0.26447   0.26930
  Beta virt. eigenvalues --    0.27086   0.27522   0.27891   0.28370   0.29109
  Beta virt. eigenvalues --    0.29539   0.29784   0.30455   0.31201   0.31722
  Beta virt. eigenvalues --    0.32354   0.32619   0.33410   0.34539   0.35235
  Beta virt. eigenvalues --    0.35345   0.35659   0.36024   0.36864   0.37344
  Beta virt. eigenvalues --    0.38465   0.38887   0.39975   0.40222   0.41180
  Beta virt. eigenvalues --    0.42309   0.42530   0.45909   0.46482   0.49858
  Beta virt. eigenvalues --    0.50149   0.52109   0.52646   0.53306   0.53440
  Beta virt. eigenvalues --    0.53768   0.54490   0.54890   0.55325   0.55494
  Beta virt. eigenvalues --    0.55784   0.56560   0.56787   0.57325   0.57450
  Beta virt. eigenvalues --    0.57825   0.58350   0.58588   0.59189   0.59459
  Beta virt. eigenvalues --    0.60340   0.61413   0.62432   0.62653   0.63533
  Beta virt. eigenvalues --    0.64617   0.65518   0.66333   0.66875   0.66949
  Beta virt. eigenvalues --    0.67103   0.67459   0.67606   0.67940   0.68134
  Beta virt. eigenvalues --    0.68406   0.68517   0.68787   0.69534   0.69931
  Beta virt. eigenvalues --    0.70722   0.71305   0.71423   0.71990   0.72098
  Beta virt. eigenvalues --    0.72267   0.72532   0.73384   0.73715   0.73989
  Beta virt. eigenvalues --    0.74526   0.74558   0.74930   0.75178   0.75309
  Beta virt. eigenvalues --    0.76327   0.76481   0.78407   0.78810   0.79402
  Beta virt. eigenvalues --    0.79830   0.80670   0.81505   0.82165   0.82222
  Beta virt. eigenvalues --    0.83158   0.83767   0.84273   0.85039   0.85213
  Beta virt. eigenvalues --    0.85616   0.86061   0.86355   0.87863   0.88268
  Beta virt. eigenvalues --    0.89725   0.91086   0.91573   0.93001   0.94031
  Beta virt. eigenvalues --    0.95965   0.97761   0.99032   1.00088   1.00641
  Beta virt. eigenvalues --    1.01444   1.02210   1.02800   1.03397   1.03688
  Beta virt. eigenvalues --    1.05544   1.05950   1.06335   1.06787   1.07716
  Beta virt. eigenvalues --    1.08549   1.08865   1.09525   1.11551   1.11834
  Beta virt. eigenvalues --    1.12962   1.13465   1.14197   1.14297   1.15565
  Beta virt. eigenvalues --    1.15715   1.17000   1.17613   1.18290   1.18824
  Beta virt. eigenvalues --    1.19968   1.20562   1.21047   1.22487   1.23165
  Beta virt. eigenvalues --    1.24139   1.24837   1.25330   1.26585   1.27586
  Beta virt. eigenvalues --    1.28943   1.29571   1.30438   1.31390   1.31861
  Beta virt. eigenvalues --    1.32481   1.32833   1.33477   1.34190   1.34748
  Beta virt. eigenvalues --    1.35275   1.36261   1.36606   1.37477   1.37918
  Beta virt. eigenvalues --    1.38745   1.39106   1.39387   1.39493   1.41068
  Beta virt. eigenvalues --    1.41783   1.42269   1.42917   1.43259   1.44423
  Beta virt. eigenvalues --    1.46010   1.46878   1.47035   1.47639   1.48890
  Beta virt. eigenvalues --    1.49287   1.49716   1.50498   1.50995   1.51799
  Beta virt. eigenvalues --    1.51956   1.52650   1.53507   1.55592   1.56547
  Beta virt. eigenvalues --    1.57449   1.59281   1.60504   1.62467   1.63593
  Beta virt. eigenvalues --    1.64174   1.65743   1.66708   1.68733   1.69318
  Beta virt. eigenvalues --    1.70442   1.72017   1.72157   1.72478   1.73918
  Beta virt. eigenvalues --    1.74065   1.75331   1.75921   1.76695   1.77785
  Beta virt. eigenvalues --    1.78012   1.79334   1.79976   1.83721   1.85284
  Beta virt. eigenvalues --    1.86433   1.87292   1.91472   1.97476   1.97576
  Beta virt. eigenvalues --    1.99441   2.02810   2.03247   2.03857   2.04391
  Beta virt. eigenvalues --    2.05637   2.06731   2.09319   2.15460   2.21063
  Beta virt. eigenvalues --    2.22663   2.27514   2.30739   2.33264   2.47970
  Beta virt. eigenvalues --    2.48615   2.52792   2.54134   2.55319   2.57895
  Beta virt. eigenvalues --    2.58860   2.60117   2.62135   2.62263   2.64088
  Beta virt. eigenvalues --    2.64762   2.66492   2.67933   2.68750   2.69195
  Beta virt. eigenvalues --    2.69899   2.72795   2.73119   2.73810   2.75448
  Beta virt. eigenvalues --    2.75757   2.76769   2.77628   2.77721   2.77932
  Beta virt. eigenvalues --    2.78957   2.79203   2.80064   2.80680   2.81392
  Beta virt. eigenvalues --    2.82164   2.82474   2.82819   2.83273   2.83968
  Beta virt. eigenvalues --    2.84644   2.85506   2.85799   2.86074   2.87129
  Beta virt. eigenvalues --    2.87452   2.88161   2.88610   2.88827   2.89576
  Beta virt. eigenvalues --    2.89923   2.90436   2.91306   2.91669   2.92109
  Beta virt. eigenvalues --    2.93161   2.93354   2.94501   2.95967   2.96723
  Beta virt. eigenvalues --    2.97443   2.98131   2.99050   3.00537   3.02648
  Beta virt. eigenvalues --    3.03471   3.06025   3.07555   3.07860   3.10598
  Beta virt. eigenvalues --    3.11562   3.12554   3.13495   3.13872   3.14665
  Beta virt. eigenvalues --    3.15063   3.15897   3.16095   3.17725   3.17787
  Beta virt. eigenvalues --    3.18242   3.19683   3.20245   3.20336   3.21491
  Beta virt. eigenvalues --    3.21691   3.22211   3.22756   3.23320   3.24420
  Beta virt. eigenvalues --    3.25921   3.26477   3.29187   3.29637   3.29926
  Beta virt. eigenvalues --    3.30572   3.31105   3.31677   3.32238   3.34032
  Beta virt. eigenvalues --    3.34898   3.35107   3.36261   3.36412   3.37440
  Beta virt. eigenvalues --    3.38893   3.39278   3.40494   3.41093   3.42104
  Beta virt. eigenvalues --    3.42290   3.42504   3.43910   3.44787   3.45111
  Beta virt. eigenvalues --    3.45256   3.45947   3.46717   3.47777   3.48698
  Beta virt. eigenvalues --    3.49531   3.50258   3.50703   3.52455   3.52931
  Beta virt. eigenvalues --    3.55437   3.56550   3.56979   3.58316   3.59050
  Beta virt. eigenvalues --    3.59792   3.60619   3.62125   3.63383   3.63515
  Beta virt. eigenvalues --    3.66197   3.67612   3.68189   3.69791   3.71013
  Beta virt. eigenvalues --    3.72378   3.72788   3.73010   3.73231   3.74061
  Beta virt. eigenvalues --    3.76433   3.77270   3.77813   3.78722   3.79710
  Beta virt. eigenvalues --    3.79956   3.80551   3.81167   3.82752   3.82831
  Beta virt. eigenvalues --    3.83362   3.84074   3.86281   3.87598   3.88631
  Beta virt. eigenvalues --    3.89481   3.89886   3.90377   3.91287   3.91954
  Beta virt. eigenvalues --    3.94099   3.95036   3.97243   3.98642   3.99144
  Beta virt. eigenvalues --    3.99735   4.01455   4.02834   4.05066   4.05911
  Beta virt. eigenvalues --    4.07172   4.07750   4.08165   4.09331   4.09753
  Beta virt. eigenvalues --    4.11398   4.11516   4.12293   4.12788   4.13347
  Beta virt. eigenvalues --    4.15204   4.15793   4.16724   4.18706   4.21418
  Beta virt. eigenvalues --    4.23375   4.24644   4.25736   4.26583   4.28306
  Beta virt. eigenvalues --    4.29028   4.29724   4.31206   4.32096   4.34343
  Beta virt. eigenvalues --    4.35618   4.36623   4.36993   4.37512   4.38443
  Beta virt. eigenvalues --    4.39211   4.39697   4.40373   4.40728   4.42049
  Beta virt. eigenvalues --    4.43692   4.44680   4.44915   4.45928   4.46135
  Beta virt. eigenvalues --    4.46912   4.47091   4.48821   4.49930   4.50571
  Beta virt. eigenvalues --    4.50808   4.52935   4.56312   4.57117   4.57859
  Beta virt. eigenvalues --    4.58948   4.61798   4.62456   4.63288   4.65508
  Beta virt. eigenvalues --    4.66746   4.67615   4.68402   4.69686   4.71746
  Beta virt. eigenvalues --    4.72879   4.75311   4.75974   4.77817   4.78196
  Beta virt. eigenvalues --    4.79626   4.82235   4.89848   4.90999   4.94007
  Beta virt. eigenvalues --    4.95744   4.97505   4.99996   5.02555   5.04296
  Beta virt. eigenvalues --    5.05216   5.05615   5.06355   5.06693   5.08015
  Beta virt. eigenvalues --    5.08340   5.10846   5.11626   5.12635   5.17769
  Beta virt. eigenvalues --    5.18787   5.21419   5.23157   5.26071   5.27612
  Beta virt. eigenvalues --    5.31376   5.35011   5.37186   5.37227   5.39746
  Beta virt. eigenvalues --    5.44748   5.46456   5.48361   5.50528   5.54754
  Beta virt. eigenvalues --    5.62283   5.66302   5.67850   5.68468   5.69324
  Beta virt. eigenvalues --    5.70692   5.73460   5.74559   5.75000   5.76156
  Beta virt. eigenvalues --    5.79098   5.81492   5.89881   6.00244   6.14012
  Beta virt. eigenvalues --    6.15365   6.48650   6.49885   6.58859   6.79692
  Beta virt. eigenvalues --    6.81175   6.88215   6.95748   7.03390   7.08016
  Beta virt. eigenvalues --    7.22655   7.29253   7.42459   7.57287   7.79483
  Beta virt. eigenvalues --    8.11919  23.90360  23.94036  24.46174  24.47450
  Beta virt. eigenvalues --   24.47732  24.49763  24.51885  24.61080  24.71299
  Beta virt. eigenvalues --   24.72311  24.73730  24.74706  25.17852  25.19146
  Beta virt. eigenvalues --   49.98803  50.04402
          Condensed to atoms (all electrons):
               1          2          3          4          5          6
     1  C    5.489620  -0.307851   0.037968   0.543765   1.063773  -1.051331
     2  C   -0.307851   7.209963   0.743708  -0.683183  -2.568374   2.026750
     3  C    0.037968   0.743708   6.353304  -1.071312  -0.775695   1.346838
     4  C    0.543765  -0.683183  -1.071312   8.654622  -0.454091  -1.490186
     5  C    1.063773  -2.568374  -0.775695  -0.454091  11.587102  -3.488211
     6  C   -1.051331   2.026750   1.346838  -1.490186  -3.488211  11.031310
     7  H    0.047242  -0.014022   0.298281   0.038155  -0.001407  -0.001502
     8  H    0.332476   0.029654   0.027236  -0.013768  -0.022027   0.020251
     9  H   -0.021078   0.011018   0.065102   0.274171  -0.038267   0.047212
    10  H    0.048302   0.295300  -0.015256   0.001539   0.042769  -0.003927
    11  H   -0.016897   0.055998   0.002608  -0.009425   0.244748   0.066877
    12  C   -0.040377  -0.388714  -0.683663   0.180823   0.283016  -3.429132
    13  C    0.087064  -0.216514  -0.018389   0.218220   0.452089   0.260169
    14  H    0.001735   0.001710   0.005497   0.016626  -0.000012  -0.014337
    15  H   -0.001054   0.007298   0.003208  -0.010920  -0.004879  -0.037286
    16  C   -0.019351   0.073869   0.073832  -0.001447  -0.069480  -0.229155
    17  H    0.006176  -0.010682  -0.007343  -0.005108   0.073588  -0.079378
    18  H    0.001586  -0.003713  -0.007258   0.001956   0.014337  -0.033513
    19  C    0.011001  -0.029905  -0.041792  -0.188483   0.288997  -0.180663
    20  C    0.001328  -0.001922  -0.000922   0.020883   0.000939   0.052737
    21  H   -0.000030   0.000214   0.000343  -0.001021  -0.000861  -0.004606
    22  C   -0.003999   0.018221  -0.004326   0.151006  -0.170481   0.140478
    23  C   -0.006218   0.022541   0.011807   0.002856  -0.152121   0.185918
    24  C    0.000713  -0.001412  -0.002839  -0.003093   0.017064  -0.014794
    25  H    0.000000  -0.000003  -0.000002  -0.000051   0.000018   0.000125
    26  H   -0.000000  -0.000000   0.000000   0.000002  -0.000007  -0.000011
    27  H    0.000000   0.000003  -0.000002  -0.000016   0.000028  -0.000182
    28  H    0.000024  -0.000409   0.000041  -0.000012   0.000154  -0.003314
    29  O   -0.011326  -0.003216   0.016630  -0.011359  -0.078069   0.092466
    30  O    0.000444  -0.014541  -0.002078   0.006768   0.022911   0.025042
    31  H    0.000289   0.002567  -0.000112  -0.001178  -0.006063   0.000610
               7          8          9         10         11         12
     1  C    0.047242   0.332476  -0.021078   0.048302  -0.016897  -0.040377
     2  C   -0.014022   0.029654   0.011018   0.295300   0.055998  -0.388714
     3  C    0.298281   0.027236   0.065102  -0.015256   0.002608  -0.683663
     4  C    0.038155  -0.013768   0.274171   0.001539  -0.009425   0.180823
     5  C   -0.001407  -0.022027  -0.038267   0.042769   0.244748   0.283016
     6  C   -0.001502   0.020251   0.047212  -0.003927   0.066877  -3.429132
     7  H    0.491156  -0.006701  -0.006927  -0.000068   0.000050   0.011370
     8  H   -0.006701   0.485965  -0.000090  -0.006811  -0.000070   0.006838
     9  H   -0.006927  -0.000090   0.478141   0.000043  -0.000106   0.030239
    10  H   -0.000068  -0.006811   0.000043   0.489899  -0.006687   0.009638
    11  H    0.000050  -0.000070  -0.000106  -0.006687   0.469338   0.029769
    12  C    0.011370   0.006838   0.030239   0.009638   0.029769  11.210075
    13  C    0.000023  -0.000659   0.016262   0.000274   0.001504  -2.501538
    14  H   -0.000017  -0.000001  -0.002241   0.000009   0.000357   0.337554
    15  H    0.000007  -0.000001   0.000209  -0.000025  -0.001978   0.435370
    16  C   -0.000150   0.000010  -0.005740  -0.000224  -0.004668   1.156793
    17  H    0.000010  -0.000001  -0.000169   0.000005   0.003634  -0.018589
    18  H    0.000011   0.000002  -0.000709  -0.000000  -0.000012   0.013837
    19  C    0.000050   0.000001  -0.000919   0.000002  -0.000889   0.050167
    20  C   -0.000001  -0.000001  -0.000789  -0.000002   0.000006   0.018622
    21  H   -0.000000   0.000000   0.000081   0.000000   0.000001   0.014257
    22  C   -0.000040  -0.000003  -0.000165  -0.000024   0.001953  -0.149412
    23  C   -0.000003   0.000001   0.000145  -0.000004   0.001104   0.044731
    24  C    0.000000  -0.000000   0.000000   0.000000  -0.000008   0.000338
    25  H    0.000000  -0.000000  -0.000000   0.000000   0.000000  -0.000587
    26  H   -0.000000   0.000000   0.000000  -0.000000   0.000000  -0.000415
    27  H    0.000000  -0.000000   0.000000   0.000000  -0.000000  -0.000151
    28  H    0.000000   0.000000  -0.000000   0.000000   0.000028   0.013075
    29  O   -0.000009   0.000010  -0.000021  -0.000005  -0.003472   0.007409
    30  O   -0.000000   0.000002   0.000000  -0.000015  -0.000782  -0.039353
    31  H    0.000000  -0.000000  -0.000000   0.000001   0.000303   0.000982
              13         14         15         16         17         18
     1  C    0.087064   0.001735  -0.001054  -0.019351   0.006176   0.001586
     2  C   -0.216514   0.001710   0.007298   0.073869  -0.010682  -0.003713
     3  C   -0.018389   0.005497   0.003208   0.073832  -0.007343  -0.007258
     4  C    0.218220   0.016626  -0.010920  -0.001447  -0.005108   0.001956
     5  C    0.452089  -0.000012  -0.004879  -0.069480   0.073588   0.014337
     6  C    0.260169  -0.014337  -0.037286  -0.229155  -0.079378  -0.033513
     7  H    0.000023  -0.000017   0.000007  -0.000150   0.000010   0.000011
     8  H   -0.000659  -0.000001  -0.000001   0.000010  -0.000001   0.000002
     9  H    0.016262  -0.002241   0.000209  -0.005740  -0.000169  -0.000709
    10  H    0.000274   0.000009  -0.000025  -0.000224   0.000005  -0.000000
    11  H    0.001504   0.000357  -0.001978  -0.004668   0.003634  -0.000012
    12  C   -2.501538   0.337554   0.435370   1.156793  -0.018589   0.013837
    13  C   13.717473   0.076350   0.005002  -5.837109   0.162396   0.447577
    14  H    0.076350   0.458022  -0.013630  -0.082944   0.003955  -0.004867
    15  H    0.005002  -0.013630   0.441018  -0.042837  -0.000133   0.002122
    16  C   -5.837109  -0.082944  -0.042837  13.901641  -0.111634  -0.085301
    17  H    0.162396   0.003955  -0.000133  -0.111634   0.465147  -0.001482
    18  H    0.447577  -0.004867   0.002122  -0.085301  -0.001482   0.425075
    19  C    1.228551  -0.008156   0.001998  -3.438551  -0.108662   0.010796
    20  C   -1.010610  -0.007059  -0.008387   1.364829   0.003966   0.003522
    21  H    0.029648  -0.000341  -0.000054   0.001516   0.001088  -0.001865
    22  C    0.863756   0.039880   0.012388  -1.864506   0.150558  -0.006631
    23  C   -0.991985  -0.007620   0.003982   1.395232   0.009522   0.004068
    24  C    0.115159   0.003456   0.001115  -1.208856   0.003206   0.000110
    25  H    0.009634   0.000017   0.000002   0.009167  -0.000003  -0.000026
    26  H    0.006346   0.000001   0.000002   0.017702  -0.000002  -0.000001
    27  H    0.012244   0.000001  -0.000001  -0.005697  -0.000000   0.000006
    28  H   -0.010985  -0.000035   0.000401   0.034760   0.003191   0.000359
    29  O    0.038345  -0.001919  -0.000607   0.145971  -0.225456  -0.000762
    30  O    0.036258   0.000117  -0.000565  -0.074796   0.021867  -0.001308
    31  H    0.017007   0.000001   0.000017  -0.022454   0.000905   0.000017
              19         20         21         22         23         24
     1  C    0.011001   0.001328  -0.000030  -0.003999  -0.006218   0.000713
     2  C   -0.029905  -0.001922   0.000214   0.018221   0.022541  -0.001412
     3  C   -0.041792  -0.000922   0.000343  -0.004326   0.011807  -0.002839
     4  C   -0.188483   0.020883  -0.001021   0.151006   0.002856  -0.003093
     5  C    0.288997   0.000939  -0.000861  -0.170481  -0.152121   0.017064
     6  C   -0.180663   0.052737  -0.004606   0.140478   0.185918  -0.014794
     7  H    0.000050  -0.000001  -0.000000  -0.000040  -0.000003   0.000000
     8  H    0.000001  -0.000001   0.000000  -0.000003   0.000001  -0.000000
     9  H   -0.000919  -0.000789   0.000081  -0.000165   0.000145   0.000000
    10  H    0.000002  -0.000002   0.000000  -0.000024  -0.000004   0.000000
    11  H   -0.000889   0.000006   0.000001   0.001953   0.001104  -0.000008
    12  C    0.050167   0.018622   0.014257  -0.149412   0.044731   0.000338
    13  C    1.228551  -1.010610   0.029648   0.863756  -0.991985   0.115159
    14  H   -0.008156  -0.007059  -0.000341   0.039880  -0.007620   0.003456
    15  H    0.001998  -0.008387  -0.000054   0.012388   0.003982   0.001115
    16  C   -3.438551   1.364829   0.001516  -1.864506   1.395232  -1.208856
    17  H   -0.108662   0.003966   0.001088   0.150558   0.009522   0.003206
    18  H    0.010796   0.003522  -0.001865  -0.006631   0.004068   0.000110
    19  C   12.738408  -1.434554   0.335489  -2.104710  -1.982071   0.947820
    20  C   -1.434554   6.720757   0.045181  -0.676293   1.029146  -0.003688
    21  H    0.335489   0.045181   0.476536  -0.038982   0.011139  -0.015796
    22  C   -2.104710  -0.676293  -0.038982  12.865998  -3.997896   0.618925
    23  C   -1.982071   1.029146   0.011139  -3.997896  10.884703  -0.421607
    24  C    0.947820  -0.003688  -0.015796   0.618925  -0.421607   5.685651
    25  H    0.019824   0.302060  -0.006934   0.009621  -0.018231   0.046360
    26  H   -0.020300   0.033054  -0.000089  -0.018675   0.027106   0.335915
    27  H    0.014935  -0.022649   0.000043   0.053706   0.269362   0.056492
    28  H   -0.056939   0.009073  -0.000111   0.334115   0.063442  -0.018697
    29  O    0.045610  -0.007747  -0.000214  -0.227786   0.067484  -0.005865
    30  O   -0.000722   0.000366  -0.000018   0.047551   0.050329   0.000717
    31  H   -0.005275   0.001435   0.000000   0.005107   0.008560  -0.001725
              25         26         27         28         29         30
     1  C    0.000000  -0.000000   0.000000   0.000024  -0.011326   0.000444
     2  C   -0.000003  -0.000000   0.000003  -0.000409  -0.003216  -0.014541
     3  C   -0.000002   0.000000  -0.000002   0.000041   0.016630  -0.002078
     4  C   -0.000051   0.000002  -0.000016  -0.000012  -0.011359   0.006768
     5  C    0.000018  -0.000007   0.000028   0.000154  -0.078069   0.022911
     6  C    0.000125  -0.000011  -0.000182  -0.003314   0.092466   0.025042
     7  H    0.000000  -0.000000   0.000000   0.000000  -0.000009  -0.000000
     8  H   -0.000000   0.000000  -0.000000   0.000000   0.000010   0.000002
     9  H   -0.000000   0.000000   0.000000  -0.000000  -0.000021   0.000000
    10  H    0.000000  -0.000000   0.000000   0.000000  -0.000005  -0.000015
    11  H    0.000000   0.000000  -0.000000   0.000028  -0.003472  -0.000782
    12  C   -0.000587  -0.000415  -0.000151   0.013075   0.007409  -0.039353
    13  C    0.009634   0.006346   0.012244  -0.010985   0.038345   0.036258
    14  H    0.000017   0.000001   0.000001  -0.000035  -0.001919   0.000117
    15  H    0.000002   0.000002  -0.000001   0.000401  -0.000607  -0.000565
    16  C    0.009167   0.017702  -0.005697   0.034760   0.145971  -0.074796
    17  H   -0.000003  -0.000002  -0.000000   0.003191  -0.225456   0.021867
    18  H   -0.000026  -0.000001   0.000006   0.000359  -0.000762  -0.001308
    19  C    0.019824  -0.020300   0.014935  -0.056939   0.045610  -0.000722
    20  C    0.302060   0.033054  -0.022649   0.009073  -0.007747   0.000366
    21  H   -0.006934  -0.000089   0.000043  -0.000111  -0.000214  -0.000018
    22  C    0.009621  -0.018675   0.053706   0.334115  -0.227786   0.047551
    23  C   -0.018231   0.027106   0.269362   0.063442   0.067484   0.050329
    24  C    0.046360   0.335915   0.056492  -0.018697  -0.005865   0.000717
    25  H    0.488071  -0.006686  -0.000062   0.000050   0.000000   0.000000
    26  H   -0.006686   0.484256  -0.006728  -0.000128   0.000003  -0.000001
    27  H   -0.000062  -0.006728   0.490806  -0.007044  -0.000044  -0.000019
    28  H    0.000050  -0.000128  -0.007044   0.481188  -0.002071   0.003890
    29  O    0.000000   0.000003  -0.000044  -0.002071   8.441879   0.036811
    30  O    0.000000  -0.000001  -0.000019   0.003890   0.036811   7.854756
    31  H   -0.000000   0.000000  -0.000002   0.000309  -0.020119   0.214367
              31
     1  C    0.000289
     2  C    0.002567
     3  C   -0.000112
     4  C   -0.001178
     5  C   -0.006063
     6  C    0.000610
     7  H    0.000000
     8  H   -0.000000
     9  H   -0.000000
    10  H    0.000001
    11  H    0.000303
    12  C    0.000982
    13  C    0.017007
    14  H    0.000001
    15  H    0.000017
    16  C   -0.022454
    17  H    0.000905
    18  H    0.000017
    19  C   -0.005275
    20  C    0.001435
    21  H    0.000000
    22  C    0.005107
    23  C    0.008560
    24  C   -0.001725
    25  H   -0.000000
    26  H    0.000000
    27  H   -0.000002
    28  H    0.000309
    29  O   -0.020119
    30  O    0.214367
    31  H    0.544602
          Atomic-Atomic Spin Densities.
               1          2          3          4          5          6
     1  C    0.027846  -0.045065  -0.021825   0.017186   0.068311  -0.049710
     2  C   -0.045065   0.111547   0.035364  -0.036853  -0.167379   0.110740
     3  C   -0.021825   0.035364   0.027268  -0.016769  -0.057624   0.031775
     4  C    0.017186  -0.036853  -0.016769   0.043229   0.032475  -0.065824
     5  C    0.068311  -0.167379  -0.057624   0.032475   0.333557  -0.206304
     6  C   -0.049710   0.110740   0.031775  -0.065824  -0.206304   0.173902
     7  H    0.000204  -0.000079  -0.000224   0.000293   0.000093  -0.000263
     8  H   -0.000370   0.000345   0.000099  -0.000096  -0.000203   0.000191
     9  H    0.000028  -0.000128  -0.000080   0.001651  -0.000596  -0.000614
    10  H    0.000515  -0.001654  -0.000228   0.000042   0.002018  -0.000589
    11  H    0.000092   0.004366   0.000375  -0.000994  -0.002691   0.001583
    12  C    0.001564  -0.007090   0.001566   0.035814  -0.008605  -0.007027
    13  C   -0.000669   0.003239   0.004049  -0.017301  -0.010533   0.031707
    14  H   -0.000018   0.000107   0.000747  -0.005345   0.003373   0.013306
    15  H    0.000116  -0.000147  -0.000371   0.001946  -0.001993  -0.002571
    16  C    0.003105  -0.014053  -0.007395   0.008882   0.037439  -0.027605
    17  H    0.001721  -0.006824  -0.001027  -0.001456   0.026078   0.017098
    18  H   -0.000083   0.000365  -0.000474   0.001591  -0.001191  -0.012168
    19  C    0.000430  -0.002735   0.004831   0.011929  -0.014203  -0.036653
    20  C    0.000541  -0.001612  -0.000506   0.004198   0.004707  -0.011641
    21  H    0.000004  -0.000011   0.000005  -0.000029   0.000063   0.000027
    22  C   -0.000537   0.006510  -0.001799  -0.013133   0.005184   0.032164
    23  C   -0.000060   0.001984  -0.000693  -0.005836   0.004298   0.013013
    24  C   -0.000029   0.000179   0.000167   0.000363  -0.001005  -0.000983
    25  H    0.000000  -0.000000   0.000000   0.000001   0.000001   0.000048
    26  H   -0.000000   0.000000  -0.000000  -0.000001   0.000001  -0.000006
    27  H   -0.000000   0.000000   0.000000  -0.000001  -0.000001  -0.000030
    28  H    0.000016  -0.000112  -0.000015   0.000264  -0.000149   0.001876
    29  O   -0.002473   0.010851   0.001680   0.004210  -0.039701  -0.016320
    30  O    0.000221  -0.000160   0.000071  -0.002479   0.008210   0.006989
    31  H   -0.000001   0.000055  -0.000006   0.000047  -0.000423   0.000247
               7          8          9         10         11         12
     1  C    0.000204  -0.000370   0.000028   0.000515   0.000092   0.001564
     2  C   -0.000079   0.000345  -0.000128  -0.001654   0.004366  -0.007090
     3  C   -0.000224   0.000099  -0.000080  -0.000228   0.000375   0.001566
     4  C    0.000293  -0.000096   0.001651   0.000042  -0.000994   0.035814
     5  C    0.000093  -0.000203  -0.000596   0.002018  -0.002691  -0.008605
[...]
    D6        3.13802   0.00005  -0.00022   0.00491   0.00473  -3.14044
    D7        3.13770   0.00003   0.00020   0.00133   0.00156   3.13926
    D8       -0.00596   0.00009   0.00007   0.00337   0.00341  -0.00255
    D9        0.00083  -0.00002  -0.00016  -0.00122  -0.00137  -0.00054
   D10        3.14059   0.00002   0.00069  -0.00232  -0.00148   3.13911
   D11       -3.13888  -0.00003  -0.00050  -0.00345  -0.00402   3.14028
   D12        0.00088   0.00001   0.00035  -0.00455  -0.00413  -0.00325
   D13        0.00706  -0.00006   0.00034   0.00069   0.00104   0.00810
   D14        3.13565   0.00009  -0.00076   0.00532   0.00443   3.14008
   D15       -3.13247  -0.00012   0.00047  -0.00134  -0.00080  -3.13327
   D16       -0.00388   0.00003  -0.00063   0.00329   0.00259  -0.00129
   D17       -0.00851   0.00009  -0.00049  -0.00444  -0.00504  -0.01354
   D18       -3.10293   0.00006  -0.00006  -0.00272  -0.00314  -3.10607
   D19       -3.13715  -0.00006   0.00061  -0.00904  -0.00841   3.13763
   D20        0.05161  -0.00009   0.00103  -0.00733  -0.00652   0.04510
   D21        0.00456  -0.00005   0.00040   0.00471   0.00522   0.00978
   D22        3.09912  -0.00001   0.00000   0.00335   0.00378   3.10290
   D23       -3.13521  -0.00008  -0.00044   0.00580   0.00532  -3.12989
   D24       -0.04065  -0.00005  -0.00084   0.00444   0.00388  -0.03677
   D25        1.59439   0.00013   0.00345   0.03916   0.04294   1.63732
   D26       -0.52191  -0.00010   0.00132   0.03248   0.03363  -0.48828
   D27       -2.57734   0.00032   0.00161   0.03245   0.03430  -2.54304
   D28       -1.49910   0.00010   0.00386   0.04071   0.04461  -1.45449
   D29        2.66779  -0.00013   0.00173   0.03404   0.03530   2.70309
   D30        0.61236   0.00029   0.00202   0.03401   0.03598   0.64834
   D31       -3.02083  -0.00009  -0.00045  -0.07193  -0.07130  -3.09213
   D32        1.14499   0.00024  -0.00399  -0.06496  -0.07193   1.07306
   D33       -0.87535   0.00055  -0.00167  -0.05802  -0.05976  -0.93511
   D34       -0.88867  -0.00076   0.00070  -0.07104  -0.06862  -0.95729
   D35       -3.00604  -0.00042  -0.00284  -0.06407  -0.06925  -3.07529
   D36        1.25680  -0.00012  -0.00052  -0.05713  -0.05708   1.19972
   D37        1.16195  -0.00074   0.00063  -0.06467  -0.06262   1.09933
   D38       -0.95542  -0.00041  -0.00290  -0.05770  -0.06325  -1.01866
   D39       -2.97576  -0.00010  -0.00058  -0.05075  -0.05108  -3.02684
   D40        2.46128   0.00039   0.00141   0.16175   0.16328   2.62456
   D41       -0.70704  -0.00029   0.00499   0.11691   0.12202  -0.58502
   D42       -1.68578   0.00104   0.00087   0.15327   0.15412  -1.53166
   D43        1.42908   0.00036   0.00445   0.10843   0.11286   1.54194
   D44        0.31703   0.00031   0.00157   0.14646   0.14793   0.46495
   D45       -2.85129  -0.00037   0.00514   0.10162   0.10667  -2.74463
   D46        1.02404  -0.00136  -0.00310   0.04167   0.02934   1.05339
   D47       -1.00611   0.00175  -0.00013   0.10461   0.11658  -0.88953
   D48       -2.88446   0.00222   0.00164   0.12133   0.12009  -2.76437
   D49        3.09447  -0.00013   0.00052  -0.02591  -0.02535   3.06912
   D50       -0.02897  -0.00031   0.00204  -0.03074  -0.02867  -0.05764
   D51       -0.02123   0.00052  -0.00291   0.01749   0.01456  -0.00667
   D52        3.13851   0.00034  -0.00140   0.01266   0.01125  -3.13343
   D53       -3.09612   0.00024  -0.00133   0.02755   0.02627  -3.06985
   D54        0.05149   0.00003   0.00018   0.01325   0.01346   0.06494
   D55        0.01943  -0.00044   0.00217  -0.01616  -0.01399   0.00544
   D56       -3.11615  -0.00065   0.00368  -0.03046  -0.02681   3.14023
   D57        0.00946  -0.00025   0.00178  -0.00764  -0.00585   0.00361
   D58       -3.13332  -0.00024   0.00203  -0.00607  -0.00404  -3.13736
   D59        3.13278  -0.00007   0.00026  -0.00276  -0.00249   3.13029
   D60       -0.00999  -0.00006   0.00050  -0.00118  -0.00068  -0.01067
   D61        0.00471  -0.00011   0.00018  -0.00401  -0.00383   0.00088
   D62        3.13814   0.00007   0.00050   0.00263   0.00313   3.14127
   D63       -3.13570  -0.00012  -0.00006  -0.00559  -0.00565  -3.14135
   D64       -0.00227   0.00006   0.00026   0.00105   0.00132  -0.00095
   D65       -0.00585   0.00009  -0.00029   0.00500   0.00472  -0.00113
   D66       -3.13811   0.00003  -0.00166   0.00017  -0.00147  -3.13959
   D67        3.12974   0.00031  -0.00180   0.01929   0.01749  -3.13596
   D68       -0.00252   0.00024  -0.00316   0.01446   0.01130   0.00877
   D69       -0.00645   0.00018  -0.00091   0.00527   0.00436  -0.00209
   D70       -3.13986  -0.00000  -0.00123  -0.00138  -0.00262   3.14070
   D71        3.12577   0.00025   0.00046   0.01011   0.01057   3.13635
   D72       -0.00764   0.00007   0.00013   0.00345   0.00359  -0.00405
   D73        1.30634  -0.00208   0.00317  -0.31656  -0.31339   0.99294
         Item               Value     Threshold  Converged?
 Maximum Force            0.007380     0.002500     NO 
 RMS     Force            0.001037     0.001667     YES
 Maximum Displacement     0.994491     0.010000     NO 
 RMS     Displacement     0.198011     0.006667     NO 
 Predicted change in Energy=-2.768192D-03
 GradGradGradGradGradGradGradGradGradGradGradGradGradGradGradGradGradGrad

                          Input orientation:                          
 ---------------------------------------------------------------------
 Center     Atomic      Atomic             Coordinates (Angstroms)
 Number     Number       Type             X           Y           Z
 ---------------------------------------------------------------------
      1          6           0       -7.088168   -1.088694    0.027967
      2          6           0       -6.160960   -2.101058   -0.176179
      3          6           0       -6.694699    0.237786   -0.096551
      4          6           0       -5.382044    0.548027   -0.424876
      5          6           0       -4.850886   -1.785490   -0.508616
      6          6           0       -4.446445   -0.459500   -0.642873
      7          1           0       -7.412718    1.031276    0.062447
      8          1           0       -8.110369   -1.327821    0.285834
      9          1           0       -5.081449    1.584773   -0.521958
     10          1           0       -6.455414   -3.137122   -0.077884
     11          1           0       -4.126599   -2.578102   -0.665636
     12          6           0       -3.010727   -0.137002   -0.954712
     13          6           0       -2.174420   -0.132821    0.327671
     14          1           0       -2.931904    0.832320   -1.450859
     15          1           0       -2.624829   -0.888617   -1.644776
     16          6           0       -0.720885    0.243036    0.167905
     17          1           0       -2.212108   -1.134020    0.773689
     18          1           0       -2.635730    0.535937    1.055909
     19          6           0       -0.031675    0.866255    1.206359
     20          6           0        1.325917    1.139975    1.104559
     21          1           0       -0.564014    1.127399    2.111060
     22          6           0       -0.006735   -0.092464   -0.985775
     23          6           0        1.352021    0.181073   -1.092319
     24          6           0        2.024412    0.798032   -0.045503
     25          1           0        1.838628    1.621041    1.926380
     26          1           0        3.080908    1.011669   -0.124064
     27          1           0        1.881111   -0.086671   -1.995798
     28          1           0       -0.513977   -0.578428   -1.808806
     29          8           0       -0.624713   -1.835116    2.231706
     30          8           0        0.178092   -2.188980    1.266809
     31          1           0        0.320959   -1.394864    0.716010
 ---------------------------------------------------------------------
                    Distance matrix (angstroms):
                    1          2          3          4          5
     1  C    0.000000
     2  C    1.387901   0.000000
     3  C    1.389199   2.400294   0.000000
     4  C    2.407236   2.772401   1.388203   0.000000
     5  C    2.403929   1.387944   2.768228   2.394669   0.000000
     6  C    2.797251   2.419106   2.416469   1.392113   1.392784
     7  H    2.144946   3.381620   1.081877   2.143513   3.850099
     8  H    1.081005   2.147451   2.145103   3.386395   3.385977
     9  H    3.387738   3.856197   2.144276   1.083801   3.378167
    10  H    2.146541   1.081570   3.383432   3.853939   2.141715
    11  H    3.386785   2.146105   3.853339   3.377394   1.085118
    12  C    4.300802   3.793098   3.801125   2.524507   2.510518
    13  C    5.014822   4.474408   4.555243   3.364333   3.254868
    14  H    4.811627   4.544922   4.043048   2.671450   3.379829
    15  H    4.770691   4.016343   4.497735   3.339811   2.655291
    16  C    6.506565   5.933598   5.979667   4.708590   4.650754
    17  H    4.932963   4.175026   4.767892   3.783429   3.005307
    18  H    4.849773   4.571545   4.229927   3.120114   3.569829
    19  C    7.416504   6.948704   6.818243   5.602557   5.761744
    20  C    8.770567   8.258203   8.160079   6.905528   7.022363
    21  H    7.198259   6.854210   6.576492   5.475404   5.807314
    22  C    7.222662   6.524138   6.754897   5.442314   5.153622
    23  C    8.608376   7.905208   8.108296   6.777003   6.533310
    24  C    9.306141   8.684590   8.737241   7.420379   7.359266
    25  H    9.520207   9.070182   8.878250   7.669281   7.891975
    26  H   10.384833   9.752123   9.806229   8.480979   8.419343
    27  H    9.249197   8.487854   8.789592   7.458154   7.100527
    28  H    6.845005   6.072255   6.465241   5.184808   4.685752
    29  O    6.869488   6.043068   6.823667   5.947184   5.037099
    30  O    7.452778   6.501809   7.415066   6.424026   5.348417
    31  H    7.447302   6.581032   7.248810   6.131940   5.329192
                    6          7          8          9         10
     6  C    0.000000
     7  H    3.393916   0.000000
     8  H    3.878249   2.470214   0.000000
     9  H    2.144039   2.466314   4.279029   0.000000
    10  H    3.394823   4.279213   2.478858   4.937739   0.000000
    11  H    2.142730   4.935209   4.282397   4.273395   2.466036
    12  C    1.504172   4.666584   5.381761   2.727577   4.651388
    13  C    2.492142   5.372637   6.055185   3.481784   5.245685
    14  H    2.148365   4.733642   5.873568   2.459590   5.482394
    15  H    2.122790   5.433643   5.831921   3.662426   4.710021
    16  C    3.876947   6.738922   7.555526   4.614183   6.661134
    17  H    2.730181   5.678091   5.921575   4.159766   4.768987
    18  H    2.674966   4.904278   5.834233   3.093746   5.419117
    19  C    4.966637   7.470981   8.421795   5.385496   7.677286
    20  C    6.239552   8.801225   9.787943   6.625537   8.957725
    21  H    5.017536   7.149181   8.142912   5.248732   7.595143
    22  C    4.468033   7.563738   8.295298   5.364790   7.188856
    23  C    5.851029   8.881271   9.680542   6.609479   8.543742
    24  C    6.618930   9.440629  10.360638   7.165140   9.348472
    25  H    7.101539   9.455659  10.505700   7.340514   9.769766
    26  H    7.687298  10.495301  11.440538   8.192120  10.399809
    27  H    6.481309   9.584437  10.323564   7.310483   9.081921
    28  H    4.103395   7.327029   7.915445   5.215095   6.696542
    29  O    4.976058   7.681074   7.751052   6.256261   6.405193
    30  O    5.293801   8.333122   8.390619   6.715926   6.834513
    31  H    5.044760   8.131608   8.442561   6.292599   7.041659
                   11         12         13         14         15
    11  H    0.000000
    12  C    2.699574   0.000000
    13  C    3.282843   1.530992   0.000000
    14  H    3.697951   1.091769   2.160659   0.000000
    15  H    2.463409   1.090886   2.159779   1.758842   0.000000
    16  C    4.500278   2.578387   1.509821   2.802902   2.862072
    17  H    2.796839   2.149235   1.096701   3.055031   2.465672
    18  H    3.857933   2.153153   1.091043   2.541544   3.053387
    19  C    5.668894   3.814644   2.522221   3.933610   4.234737
    20  C    6.832834   4.967671   3.804724   4.975325   5.223258
    21  H    5.842327   4.121174   2.713307   4.287335   4.734722
    22  C    4.822257   3.004483   2.534882   3.102925   2.814704
    23  C    6.149015   4.376492   3.814536   4.347952   4.155091
    24  C    7.043989   5.201305   4.316936   5.151822   5.197875
    25  H    7.741789   5.908271   4.662238   5.897949   6.242916
    26  H    8.070186   6.254394   5.397443   6.160070   6.203152
    27  H    6.638459   5.001647   4.674181   4.930174   4.590189
    28  H    4.284456   2.675462   2.742293   2.822181   2.139818
    29  O    4.605412   4.327807   2.987431   5.098983   4.463568
    30  O    4.734567   4.394808   3.262527   5.117231   4.245543
    31  H    4.805182   3.933657   2.823203   4.498532   3.808840
                   16         17         18         19         20
    16  C    0.000000
    17  H    2.118255   0.000000
    18  H    2.130956   1.745812   0.000000
    19  C    1.393484   2.990417   2.629230   0.000000
    20  C    2.423059   4.218785   4.007727   1.388648   0.000000
    21  H    2.140691   3.101417   2.398995   1.081696   2.141272
    22  C    1.397694   3.007361   3.387473   2.392742   2.768459
    23  C    2.426714   4.232549   4.543453   2.769117   2.397174
    24  C    2.808953   4.727790   4.795698   2.408174   1.388330
    25  H    3.397387   5.032646   4.685622   2.141534   1.081522
    26  H    3.889688   5.781519   5.856501   3.388118   2.146151
    27  H    3.400103   5.051875   5.486566   3.849757   3.380105
    28  H    2.150582   3.140321   3.735002   3.378009   3.850431
    29  O    2.930399   2.266532   3.323940   2.949650   3.731834
    30  O    2.816106   2.658790   3.922658   3.063024   3.525020
    31  H    2.017070   2.547115   3.547609   2.340395   2.754327
                   21         22         23         24         25
    21  H    0.000000
    22  C    3.374762   0.000000
    23  C    3.850761   1.390105   0.000000
    24  C    3.385144   2.408870   1.388730   0.000000
    25  H    2.459773   3.849950   3.379769   2.144804   0.000000
    26  H    4.277222   3.390457   2.148594   1.080739   2.473644
    27  H    4.931419   2.141061   1.080694   2.146366   4.278034
    28  H    4.275243   1.082052   2.138258   3.383386   4.931941
    29  O    2.965592   3.710918   4.361380   4.374587   4.255150
    30  O    3.501693   3.082803   3.544115   3.748773   4.208168
    31  H    3.015154   2.167879   2.610885   2.879313   3.586642
                   26         27         28         29         30
    26  H    0.000000
    27  H    2.479769   0.000000
    28  H    4.276677   2.452191   0.000000
    29  O    5.233112   5.216129   4.232879   0.000000
    30  O    4.539276   4.238465   3.540092   1.304124   0.000000
    31  H    3.756919   3.391069   2.781795   1.839959   0.976940
                   31
    31  H    0.000000
 Stoichiometry    C14H15O2(2)
 Framework group  C1[X(C14H15O2)]
 Deg. of freedom    87
 Full point group                 C1      NOp   1
 Largest Abelian subgroup         C1      NOp   1
 Largest concise Abelian subgroup C1      NOp   1
                         Standard orientation:                         
 ---------------------------------------------------------------------
 Center     Atomic      Atomic             Coordinates (Angstroms)
 Number     Number       Type             X           Y           Z
 ---------------------------------------------------------------------
      1          6           0       -4.911384    0.255926   -0.274854
      2          6           0       -4.142149    1.045575    0.568355
      3          6           0       -4.367810   -0.902480   -0.815685
      4          6           0       -3.063381   -1.268242   -0.512717
      5          6           0       -2.839986    0.672975    0.871556
      6          6           0       -2.286556   -0.489690    0.340734
      7          1           0       -4.962214   -1.521473   -1.474464
      8          1           0       -5.926663    0.539874   -0.513921
      9          1           0       -2.645359   -2.173877   -0.936637
     10          1           0       -4.553905    1.951633    0.991804
     11          1           0       -2.239095    1.292648    1.529140
     12          6           0       -0.857497   -0.850025    0.641539
     13          6           0        0.089746   -0.112837   -0.308840
     14          1           0       -0.704558   -1.927484    0.554055
     15          1           0       -0.635852   -0.572112    1.672882
     16          6           0        1.557431   -0.434574   -0.160708
     17          1           0       -0.031297    0.966472   -0.156547
     18          1           0       -0.213194   -0.304727   -1.339267
     19          6           0        2.414229   -0.356858   -1.256909
     20          6           0        3.779785   -0.566810   -1.117199
     21          1           0        2.006532   -0.115175   -2.229246
     22          6           0        2.111884   -0.738738    1.085733
     23          6           0        3.478120   -0.951043    1.229672
     24          6           0        4.318308   -0.864471    0.127329
     25          1           0        4.424003   -0.496923   -1.983102
     26          1           0        5.381142   -1.028025    0.235169
     27          1           0        3.881892   -1.186706    2.204008
     28          1           0        1.472337   -0.804871    1.956045
     29          8           0        1.585614    2.431743   -0.769531
     30          8           0        2.243095    2.250126    0.341988
     31          1           0        2.432115    1.293551    0.402392
 ---------------------------------------------------------------------
 Rotational constants (GHZ):           1.1675923           0.2373116           0.2214384
 Standard basis: 6-311+G(2df,2p) (5D, 7F)
 There are   759 symmetry adapted cartesian basis functions of A   symmetry.
 There are   679 symmetry adapted basis functions of A   symmetry.
   679 basis functions,   997 primitive gaussians,   759 cartesian basis functions
    58 alpha electrons       57 beta electrons
       nuclear repulsion energy      1007.9914613334 Hartrees.
 NAtoms=   31 NActive=   31 NUniq=   31 SFac= 1.00D+00 NAtFMM=   60 NAOKFM=F Big=F
 Integral buffers will be    131072 words long.
 Raffenetti 2 integral format.
 Two-electron integral symmetry is turned on.
 One-electron integrals computed using PRISM.
 NBasis=   679 RedAO= T EigKep=  1.26D-06  NBF=   679
 NBsUse=   678 1.00D-06 EigRej=  8.19D-07 NBFU=   678
 Initial guess from the checkpoint file:  "/scratch/dinius.ab/QMscratch/Gau-37437.chk"
 B after Tr=     0.000000    0.000000   -0.000000
         Rot=    0.995056   -0.098456    0.002646    0.012739 Ang= -11.40 deg.
 Initial guess <Sx>= 0.0000 <Sy>= 0.0000 <Sz>= 0.5000 <S**2>= 0.7627 S= 0.5063
 ExpMin= 4.38D-02 ExpMax= 8.59D+03 ExpMxC= 1.30D+03 IAcc=2 IRadAn=         4 AccDes= 0.00D+00
 Harris functional with IExCor= 1009 and IRadAn=       4 diagonalized for initial guess.
 HarFok:  IExCor= 1009 AccDes= 0.00D+00 IRadAn=         4 IDoV= 1 UseB2=F ITyADJ=14
 ICtDFT=  3500011 ScaDFX=  1.000000  1.000000  1.000000  1.000000
 FoFCou: FMM=F IPFlag=           0 FMFlag=      100000 FMFlg1=           0
         NFxFlg=           0 DoJE=T BraDBF=F KetDBF=T FulRan=T
         wScrn=  0.000000 ICntrl=       500 IOpCl=  0 I1Cent=   200000004 NGrid=           0
         NMat0=    1 NMatS0=      1 NMatT0=    0 NMatD0=    1 NMtDS0=    0 NMtDT0=    0
 Petite list used in FoFCou.
 Requested convergence on RMS density matrix=1.00D-08 within 128 cycles.
 Requested convergence on MAX density matrix=1.00D-06.
 Requested convergence on             energy=1.00D-06.
 No special actions if energy rises.
