 Entering Gaussian System, Link 0=g16
 Input=rxn907.com
 Output=rxn907.log
 Initial command:
 /shared/centos7/gaussian/g16/l1.exe "/scratch/dinius.ab/QMscratch/Gau-30055.inp" -scrdir="/scratch/dinius.ab/QMscratch/"
 Entering Link 1 = /shared/centos7/gaussian/g16/l1.exe PID=     30056.
  
 Copyright (c) 1988,1990,1992,1993,1995,1998,2003,2009,2016,
            Gaussian, Inc.  All Rights Reserved.
  
 This is part of the Gaussian(R) 16 program.  It is based on
 the Gaussian(R) 09 system (copyright 2009, Gaussian, Inc.),
 the Gaussian(R) 03 system (copyright 2003, Gaussian, Inc.),
 the Gaussian(R) 98 system (copyright 1998, Gaussian, Inc.),
 the Gaussian(R) 94 system (copyright 1995, Gaussian, Inc.),
 the Gaussian 92(TM) system (copyright 1992, Gaussian, Inc.),
 the Gaussian 90(TM) system (copyright 1990, Gaussian, Inc.),
 the Gaussian 88(TM) system (copyright 1988, Gaussian, Inc.),
 the Gaussian 86(TM) system (copyright 1986, Carnegie Mellon
 University), and the Gaussian 82(TM) system (copyright 1983,
 Carnegie Mellon University). Gaussian is a federally registered
 trademark of Gaussian, Inc.
  
 This software contains proprietary and confidential information,
 including trade secrets, belonging to Gaussian, Inc.
  
 This software is provided under written license and may be
 used, copied, transmitted, or stored only in accord with that
 written license.
  
 The following legend is applicable only to US Government
 contracts under FAR:
  
                    RESTRICTED RIGHTS LEGEND
  
 Use, reproduction and disclosure by the US Government is
 subject to restrictions as set forth in subparagraphs (a)
 and (c) of the Commercial Computer Software - Restricted
 Rights clause in FAR 52.227-19.
  
 Gaussian, Inc.
 340 Quinnipiac St., Bldg. 40, Wallingford CT 06492
  
  
 ---------------------------------------------------------------
 Warning -- This program may not be used in any manner that
 competes with the business of Gaussian, Inc. or will provide
 assistance to any competitor of Gaussian, Inc.  The licensee
 of this program is prohibited from giving any competitor of
 Gaussian, Inc. access to this program.  By using this program,
 the user acknowledges that Gaussian, Inc. is engaged in the
 business of creating and licensing software in the field of
 computational chemistry and represents and warrants to the
 licensee that it is not a competitor of Gaussian, Inc. and that
 it will not use this program in any manner prohibited above.
 ---------------------------------------------------------------
  

 Cite this work as:
 Gaussian 16, Revision A.03,
 M. J. Frisch, G. W. Trucks, H. B. Schlegel, G. E. Scuseria, 
 M. A. Robb, J. R. Cheeseman, G. Scalmani, V. Barone, 
 G. A. Petersson, H. Nakatsuji, X. Li, M. Caricato, A. V. Marenich, 
 J. Bloino, B. G. Janesko, R. Gomperts, B. Mennucci, H. P. Hratchian, 
 J. V. Ortiz, A. F. Izmaylov, J. L. Sonnenberg, D. Williams-Young, 
 F. Ding, F. Lipparini, F. Egidi, J. Goings, B. Peng, A. Petrone, 
 T. Henderson, D. Ranasinghe, V. G. Zakrzewski, J. Gao, N. Rega, 
 G. Zheng, W. Liang, M. Hada, M. Ehara, K. Toyota, R. Fukuda, 
 J. Hasegawa, M. Ishida, T. Nakajima, Y. Honda, O. Kitao, H. Nakai, 
 T. Vreven, K. Throssell, J. A. Montgomery, Jr., J. E. Peralta, 
 F. Ogliaro, M. J. Bearpark, J. J. Heyd, E. N. Brothers, K. N. Kudin, 
 V. N. Staroverov, T. A. Keith, R. Kobayashi, J. Normand, 
 K. Raghavachari, A. P. Rendell, J. C. Burant, S. S. Iyengar, 
 J. Tomasi, M. Cossi, J. M. Millam, M. Klene, C. Adamo, R. Cammi, 
 J. W. Ochterski, R. L. Martin, K. Morokuma, O. Farkas, 
 J. B. Foresman, and D. J. Fox, Gaussian, Inc., Wallingford CT, 2016.
 
 ******************************************
 Gaussian 16:  EM64L-G16RevA.03 25-Dec-2016
                11-Jan-2019 
 ******************************************
 ----------------------------------------------------------------------
 #m062x/6-311+g(2df,2p) Opt=(ModRedun,Loose,maxcycle=1000) Int(Grid=SG1
 ) freq
 ----------------------------------------------------------------------
 1/6=1000,7=-1,18=120,19=15,26=2,38=1/1,3;
 2/9=110,12=2,17=6,18=5,40=1/2;
 3/5=4,6=6,7=214,11=2,25=1,30=1,71=1,74=-55,75=1/1,2,3;
 4//1;
 5/5=2,38=5/2;
 6/7=2,8=2,9=2,10=2,28=1/1;
 7//1,2,3,16;
 1/6=1000,7=-1,18=20,19=15,26=2/3(2);
 2/9=110/2;
 99//99;
 2/9=110/2;
 3/5=4,6=6,7=214,11=2,25=1,30=1,71=1,74=-55,75=1/1,2,3;
 4/5=5,16=3,69=1/1;
 5/5=2,38=5/2;
 7//1,2,3,16;
 1/6=1000,7=-1,18=20,19=15,26=2/3(-5);
 2/9=110/2;
 6/7=2,8=2,9=2,10=2,19=2,28=1/1;
 99/9=1/99;
 -----
 Title
 -----
 Symbolic Z-matrix:
 Charge =  0 Multiplicity = 1
 C                    -8.73571   1.77184   3.28878 
 C                    -8.70765   0.64502   2.47134 
 C                    -7.56281   2.4837    3.53142 
 H                    -9.67353   2.10211   3.72844 
 C                    -7.50624   0.22712   1.90389 
 H                    -9.62335   0.09284   2.27419 
 C                    -6.32584   0.9301    2.15295 
 H                    -7.492    -0.65412   1.26694 
 C                    -6.35628   2.06752   2.96601 
 H                    -7.59538   3.37455   4.15437 
 C                    -5.10314   2.90145   3.17185 
 C                    -5.05481   0.46251   1.53943 
 C                    -3.91187   1.05605   1.864 
 H                    -5.0635   -0.37587   0.84693 
 C                    -3.7685    2.18796   2.86554 
 H                    -2.98609   0.69351   1.42311 
 H                    -5.08007   3.35237   4.16751 
 H                    -3.38182   1.76603   3.79675 
 C                    -2.75162   3.22928   2.35658 
 H                    -1.7884    2.75469   2.1512 
 H                    -2.59692   4.01874   3.0993 
 H                    -3.10845   3.6913    1.43239 
 O                    -2.1366    4.6921    3.84131 
 O                    -1.00938   4.71795   4.78515 
 H                    -0.33325   5.1248    4.2125 
 
 The following ModRedundant input section has been read:
 B      21      23 F                                                           
 B      19      21 F                                                           
 

 GradGradGradGradGradGradGradGradGradGradGradGradGradGradGradGradGradGrad
 Berny optimization.
 Initialization pass.
                           ----------------------------
                           !    Initial Parameters    !
                           ! (Angstroms and Degrees)  !
 --------------------------                            --------------------------
 ! Name  Definition              Value          Derivative Info.                !
 --------------------------------------------------------------------------------
 ! R1    R(1,2)                  1.3924         estimate D2E/DX2                !
 ! R2    R(1,3)                  1.3933         estimate D2E/DX2                !
 ! R3    R(1,4)                  1.0871         estimate D2E/DX2                !
 ! R4    R(2,5)                  1.3928         estimate D2E/DX2                !
 ! R5    R(2,6)                  1.0873         estimate D2E/DX2                !
 ! R6    R(3,9)                  1.3959         estimate D2E/DX2                !
 ! R7    R(3,10)                 1.0875         estimate D2E/DX2                !
 ! R8    R(5,7)                  1.3963         estimate D2E/DX2                !
 ! R9    R(5,8)                  1.0874         estimate D2E/DX2                !
 ! R10   R(7,9)                  1.3985         estimate D2E/DX2                !
 ! R11   R(7,12)                 1.4868         estimate D2E/DX2                !
 ! R12   R(9,11)                 1.5193         estimate D2E/DX2                !
 ! R13   R(11,15)                1.5441         estimate D2E/DX2                !
 ! R14   R(11,17)                1.0933         estimate D2E/DX2                !
 ! R15   R(12,13)                1.3281         estimate D2E/DX2                !
 ! R16   R(12,14)                1.0874         estimate D2E/DX2                !
 ! R17   R(13,15)                1.5182         estimate D2E/DX2                !
 ! R18   R(13,16)                1.0876         estimate D2E/DX2                !
 ! R19   R(15,18)                1.093          estimate D2E/DX2                !
 ! R20   R(15,19)                1.5419         estimate D2E/DX2                !
 ! R21   R(19,20)                1.0933         estimate D2E/DX2                !
 ! R22   R(19,21)                1.0949         Frozen                          !
 ! R23   R(19,22)                1.0931         estimate D2E/DX2                !
 ! R24   R(21,23)                1.1027         Frozen                          !
 ! R25   R(23,24)                1.4704         estimate D2E/DX2                !
 ! R26   R(24,25)                0.975          estimate D2E/DX2                !
 ! A1    A(2,1,3)              119.9169         estimate D2E/DX2                !
 ! A2    A(2,1,4)              120.044          estimate D2E/DX2                !
 ! A3    A(3,1,4)              120.0358         estimate D2E/DX2                !
 ! A4    A(1,2,5)              119.9584         estimate D2E/DX2                !
 ! A5    A(1,2,6)              120.03           estimate D2E/DX2                !
 ! A6    A(5,2,6)              120.0115         estimate D2E/DX2                !
 ! A7    A(1,3,9)              120.3137         estimate D2E/DX2                !
 ! A8    A(1,3,10)             119.5414         estimate D2E/DX2                !
 ! A9    A(9,3,10)             120.14           estimate D2E/DX2                !
 ! A10   A(2,5,7)              120.3629         estimate D2E/DX2                !
 ! A11   A(2,5,8)              119.5427         estimate D2E/DX2                !
 ! A12   A(7,5,8)              120.0941         estimate D2E/DX2                !
 ! A13   A(5,7,9)              119.6562         estimate D2E/DX2                !
 ! A14   A(5,7,12)             119.391          estimate D2E/DX2                !
 ! A15   A(9,7,12)             120.9511         estimate D2E/DX2                !
 ! A16   A(3,9,7)              119.7878         estimate D2E/DX2                !
 ! A17   A(3,9,11)             119.6298         estimate D2E/DX2                !
 ! A18   A(7,9,11)             120.4813         estimate D2E/DX2                !
 ! A19   A(9,11,15)            115.6224         estimate D2E/DX2                !
 ! A20   A(9,11,17)            111.5428         estimate D2E/DX2                !
 ! A21   A(15,11,17)           110.6721         estimate D2E/DX2                !
 ! A22   A(7,12,13)            119.6225         estimate D2E/DX2                !
 ! A23   A(7,12,14)            119.8952         estimate D2E/DX2                !
 ! A24   A(13,12,14)           120.4674         estimate D2E/DX2                !
 ! A25   A(12,13,15)           125.1472         estimate D2E/DX2                !
 ! A26   A(12,13,16)           118.9785         estimate D2E/DX2                !
 ! A27   A(15,13,16)           115.8215         estimate D2E/DX2                !
 ! A28   A(11,15,13)           113.1886         estimate D2E/DX2                !
 ! A29   A(11,15,18)           108.3699         estimate D2E/DX2                !
 ! A30   A(11,15,19)           108.8724         estimate D2E/DX2                !
 ! A31   A(13,15,18)           107.917          estimate D2E/DX2                !
 ! A32   A(13,15,19)           110.3678         estimate D2E/DX2                !
 ! A33   A(18,15,19)           107.9754         estimate D2E/DX2                !
 ! A34   A(15,19,20)           110.4808         estimate D2E/DX2                !
 ! A35   A(15,19,21)           110.8682         estimate D2E/DX2                !
 ! A36   A(15,19,22)           110.4407         estimate D2E/DX2                !
 ! A37   A(20,19,21)           108.4184         estimate D2E/DX2                !
 ! A38   A(20,19,22)           108.1952         estimate D2E/DX2                !
 ! A39   A(21,19,22)           108.3536         estimate D2E/DX2                !
 ! A40   A(19,21,23)           162.8936         estimate D2E/DX2                !
 ! A41   A(21,23,24)           139.7025         estimate D2E/DX2                !
 ! A42   A(23,24,25)            99.3199         estimate D2E/DX2                !
 ! D1    D(3,1,2,5)              0.3625         estimate D2E/DX2                !
 ! D2    D(3,1,2,6)           -179.5001         estimate D2E/DX2                !
 ! D3    D(4,1,2,5)            179.6979         estimate D2E/DX2                !
 ! D4    D(4,1,2,6)             -0.1647         estimate D2E/DX2                !
 ! D5    D(2,1,3,9)             -0.4381         estimate D2E/DX2                !
 ! D6    D(2,1,3,10)           178.7584         estimate D2E/DX2                !
 ! D7    D(4,1,3,9)           -179.7736         estimate D2E/DX2                !
 ! D8    D(4,1,3,10)            -0.5771         estimate D2E/DX2                !
 ! D9    D(1,2,5,7)              0.1865         estimate D2E/DX2                !
 ! D10   D(1,2,5,8)            179.9697         estimate D2E/DX2                !
 ! D11   D(6,2,5,7)           -179.9508         estimate D2E/DX2                !
 ! D12   D(6,2,5,8)             -0.1677         estimate D2E/DX2                !
 ! D13   D(1,3,9,7)             -0.0353         estimate D2E/DX2                !
 ! D14   D(1,3,9,11)           176.3265         estimate D2E/DX2                !
 ! D15   D(10,3,9,7)          -179.227          estimate D2E/DX2                !
 ! D16   D(10,3,9,11)           -2.8651         estimate D2E/DX2                !
 ! D17   D(2,5,7,9)             -0.6581         estimate D2E/DX2                !
 ! D18   D(2,5,7,12)           179.8144         estimate D2E/DX2                !
 ! D19   D(8,5,7,9)            179.5599         estimate D2E/DX2                !
 ! D20   D(8,5,7,12)             0.0324         estimate D2E/DX2                !
 ! D21   D(5,7,9,3)              0.5805         estimate D2E/DX2                !
 ! D22   D(5,7,9,11)          -175.7498         estimate D2E/DX2                !
 ! D23   D(12,7,9,3)          -179.8995         estimate D2E/DX2                !
 ! D24   D(12,7,9,11)            3.7701         estimate D2E/DX2                !
 ! D25   D(5,7,12,13)         -174.194          estimate D2E/DX2                !
 ! D26   D(5,7,12,14)            4.4113         estimate D2E/DX2                !
 ! D27   D(9,7,12,13)            6.2848         estimate D2E/DX2                !
 ! D28   D(9,7,12,14)         -175.1099         estimate D2E/DX2                !
 ! D29   D(3,9,11,15)          163.481          estimate D2E/DX2                !
 ! D30   D(3,9,11,17)           35.8728         estimate D2E/DX2                !
 ! D31   D(7,9,11,15)          -20.1828         estimate D2E/DX2                !
 ! D32   D(7,9,11,17)         -147.7911         estimate D2E/DX2                !
 ! D33   D(9,11,15,13)          25.7053         estimate D2E/DX2                !
 ! D34   D(9,11,15,18)         -93.9575         estimate D2E/DX2                !
 ! D35   D(9,11,15,19)         148.8379         estimate D2E/DX2                !
 ! D36   D(17,11,15,13)        153.7465         estimate D2E/DX2                !
 ! D37   D(17,11,15,18)         34.0836         estimate D2E/DX2                !
 ! D38   D(17,11,15,19)        -83.121          estimate D2E/DX2                !
 ! D39   D(7,12,13,15)           1.6296         estimate D2E/DX2                !
 ! D40   D(7,12,13,16)         178.8715         estimate D2E/DX2                !
 ! D41   D(14,12,13,15)       -176.9677         estimate D2E/DX2                !
 ! D42   D(14,12,13,16)          0.2742         estimate D2E/DX2                !
 ! D43   D(12,13,15,11)        -17.8264         estimate D2E/DX2                !
 ! D44   D(12,13,15,18)        102.0957         estimate D2E/DX2                !
 ! D45   D(12,13,15,19)       -140.1292         estimate D2E/DX2                !
 ! D46   D(16,13,15,11)        164.8539         estimate D2E/DX2                !
 ! D47   D(16,13,15,18)        -75.224          estimate D2E/DX2                !
 ! D48   D(16,13,15,19)         42.5512         estimate D2E/DX2                !
 ! D49   D(11,15,19,20)        178.8074         estimate D2E/DX2                !
 ! D50   D(11,15,19,21)         58.5863         estimate D2E/DX2                !
 ! D51   D(11,15,19,22)        -61.5274         estimate D2E/DX2                !
 ! D52   D(13,15,19,20)        -56.387          estimate D2E/DX2                !
 ! D53   D(13,15,19,21)       -176.6082         estimate D2E/DX2                !
 ! D54   D(13,15,19,22)         63.2782         estimate D2E/DX2                !
 ! D55   D(18,15,19,20)         61.3522         estimate D2E/DX2                !
 ! D56   D(18,15,19,21)        -58.869          estimate D2E/DX2                !
 ! D57   D(18,15,19,22)       -178.9826         estimate D2E/DX2                !
 ! D58   D(15,19,21,23)        117.085          estimate D2E/DX2                !
 ! D59   D(20,19,21,23)         -4.3564         estimate D2E/DX2                !
 ! D60   D(22,19,21,23)       -121.5651         estimate D2E/DX2                !
 ! D61   D(19,21,23,24)        -24.9079         estimate D2E/DX2                !
 ! D62   D(21,23,24,25)         92.296          estimate D2E/DX2                !
 --------------------------------------------------------------------------------
 Trust Radius=3.00D-01 FncErr=1.00D-05 GrdErr=1.00D-04 EigMax=2.50D+02 EigMin=1.00D-04
 Number of steps in this run=    150 maximum allowed number of steps=    150.
 GradGradGradGradGradGradGradGradGradGradGradGradGradGradGradGradGradGrad

                          Input orientation:                          
 ---------------------------------------------------------------------
 Center     Atomic      Atomic             Coordinates (Angstroms)
 Number     Number       Type             X           Y           Z
 ---------------------------------------------------------------------
      1          6           0       -8.735710    1.771840    3.288780
      2          6           0       -8.707650    0.645020    2.471340
      3          6           0       -7.562810    2.483700    3.531420
      4          1           0       -9.673530    2.102110    3.728440
      5          6           0       -7.506240    0.227120    1.903890
      6          1           0       -9.623350    0.092840    2.274190
      7          6           0       -6.325840    0.930100    2.152950
      8          1           0       -7.492000   -0.654120    1.266940
      9          6           0       -6.356280    2.067520    2.966010
     10          1           0       -7.595380    3.374550    4.154370
     11          6           0       -5.103140    2.901450    3.171850
     12          6           0       -5.054810    0.462510    1.539430
     13          6           0       -3.911870    1.056050    1.864000
     14          1           0       -5.063500   -0.375870    0.846930
     15          6           0       -3.768500    2.187960    2.865540
     16          1           0       -2.986090    0.693510    1.423110
     17          1           0       -5.080070    3.352370    4.167510
     18          1           0       -3.381820    1.766030    3.796750
     19          6           0       -2.751620    3.229280    2.356580
     20          1           0       -1.788400    2.754690    2.151200
     21          1           0       -2.596920    4.018740    3.099300
     22          1           0       -3.108450    3.691300    1.432390
     23          8           0       -2.136600    4.692100    3.841310
     24          8           0       -1.009380    4.717950    4.785150
     25          1           0       -0.333250    5.124800    4.212500
 ---------------------------------------------------------------------
                    Distance matrix (angstroms):
                    1          2          3          4          5
     1  C    0.000000
     2  C    1.392379   0.000000
     3  C    1.393310   2.411467   0.000000
     4  H    1.087146   2.153215   2.153965   0.000000
     5  C    2.411571   1.392848   2.782842   3.397310   0.000000
     6  H    2.153216   1.087326   3.397450   2.480832   2.153441
     7  C    2.793942   2.419847   2.417426   3.881083   1.396265
     8  H    3.394103   2.148523   3.870245   4.291254   1.087424
     9  C    2.419358   2.792337   1.395926   3.403916   2.416108
    10  H    2.149018   3.394123   1.087539   2.473707   3.870261
    11  C    3.805950   4.309836   2.520671   4.673029   3.812434
    12  C    4.280607   3.774256   3.787255   5.367740   2.489528
    13  C    5.080530   4.851527   4.260028   6.145495   3.688931
    14  H    4.905142   4.118344   4.650825   5.974601   2.729055
    15  C    5.002546   5.189534   3.863631   5.968362   4.329014
    16  H    6.140167   5.816991   5.347534   7.212528   4.569510
    17  H    4.078473   4.833847   2.706140   4.780775   4.558230
    18  H    5.377937   5.601593   4.250427   6.301050   4.791868
    19  C    6.229162   6.493525   5.008362   7.146002   5.641303
    20  H    7.108108   7.240802   5.943253   8.067764   6.256474
    21  H    6.539817   7.008377   5.215663   7.358512   6.317184
    22  H    6.228689   6.458350   5.070064   7.134259   5.618132
    23  O    7.237504   7.838008   5.866585   7.970326   7.247253
    24  O    8.403265   9.011428   7.036416   9.111902   8.407045
    25  H    9.093785   9.655602   7.726954   9.829130   8.987143
                    6          7          8          9         10
     6  H    0.000000
     7  C    3.404303   0.000000
     8  H    2.472884   2.157474   0.000000
     9  C    3.879655   1.398470   3.403531   0.000000
    10  H    4.291545   3.404813   4.957633   2.157752   0.000000
    11  C    5.396886   2.533648   4.688007   1.519266   2.720373
    12  C    4.641992   1.486797   2.694626   2.510978   4.666089
    13  C    5.806637   2.434462   4.012293   2.865770   4.918280
    14  H    4.800937   2.237129   2.480210   3.483093   5.604929
    15  C    6.246478   2.937683   4.949484   2.592529   4.208811
    16  H    6.718509   3.426744   4.705711   3.953053   5.991103
    17  H    5.903439   3.387888   5.502970   2.173282   2.515442
    18  H    6.638859   3.473919   5.399134   3.102972   4.524303
    19  C    7.554119   4.254732   6.224091   3.835970   5.168671
    20  H    8.275688   4.890551   6.703205   4.690591   6.173972
    21  H    8.090996   4.933571   7.011061   4.237666   5.149054
    22  H    7.490091   4.300585   6.174590   3.941707   5.257570
    23  O    8.925272   5.878174   7.993107   5.045817   5.624253
    24  O   10.094406   7.038539   9.124763   6.238861   6.751148
    25  H   10.741677   7.599236   9.660225   6.868594   7.470294
                   11         12         13         14         15
    11  C    0.000000
    12  C    2.935227   0.000000
    13  C    2.556384   1.328137   0.000000
    14  H    4.018414   1.087434   2.100257   0.000000
    15  C    1.544072   2.527912   1.518176   3.510703   0.000000
    16  H    3.523491   2.084825   1.087606   2.406489   2.219493
    17  H    1.093252   3.906243   3.456000   4.992625   2.184306
    18  H    2.154674   3.097346   2.126158   4.014626   1.093023
    19  C    2.510335   3.691536   2.512318   4.541028   1.541893
    20  H    3.471421   4.037052   2.734408   4.714637   2.179968
    21  H    2.744948   4.595780   3.468803   5.519944   2.186092
    22  H    2.761951   3.771586   2.788604   4.550479   2.179361
    23  O    3.529159   5.630633   4.503576   6.573992   3.144192
    24  O    4.760387   6.708873   5.510633   7.608710   4.206958
    25  H    5.364521   7.153697   5.905650   7.997481   4.715959
                   16         17         18         19         20
    16  H    0.000000
    17  H    4.357295   0.000000
    18  H    2.634591   2.353294   0.000000
    19  C    2.712282   2.952338   2.147636   0.000000
    20  H    2.492597   3.906126   2.494849   1.093256   0.000000
    21  H    3.744091   2.784090   2.485399   1.094903   1.774942
    22  H    3.000300   3.388664   3.061306   1.093123   1.771005
    23  O    4.749531   3.250431   3.180321   2.173135   2.594470
    24  O    5.604178   4.337834   3.913980   3.339085   3.376234
    25  H    5.869803   5.067133   4.554993   3.589700   3.461768
                   21         22         23         24         25
    21  H    0.000000
    22  H    1.774111   0.000000
    23  O    1.102673   2.783701   0.000000
    24  O    2.418939   4.086699   1.470417   0.000000
    25  H    2.754412   4.181587   1.891318   0.974991   0.000000
 Stoichiometry    C11H12O2
 Framework group  C1[X(C11H12O2)]
 Deg. of freedom    69
 Full point group                 C1      NOp   1
 Largest Abelian subgroup         C1      NOp   1
 Largest concise Abelian subgroup C1      NOp   1
                         Standard orientation:                         
 ---------------------------------------------------------------------
 Center     Atomic      Atomic             Coordinates (Angstroms)
 Number     Number       Type             X           Y           Z
 ---------------------------------------------------------------------
      1          6           0       -3.305151   -1.652760    0.010894
      2          6           0       -3.943618   -0.417717   -0.064922
      3          6           0       -1.914430   -1.713611    0.070093
      4          1           0       -3.891387   -2.567988    0.034784
      5          6           0       -3.190992    0.754033   -0.089072
      6          1           0       -5.029127   -0.367740   -0.103002
      7          6           0       -1.796647    0.698362   -0.041551
      8          1           0       -3.696598    1.714907   -0.148871
      9          6           0       -1.156191   -0.541846    0.044588
     10          1           0       -1.422909   -2.680472    0.149642
     11          6           0        0.353624   -0.620770    0.194252
     12          6           0       -1.014440    1.962380   -0.072768
     13          6           0        0.310815    1.912679   -0.144717
     14          1           0       -1.530408    2.919519   -0.059579
     15          6           0        1.134049    0.640322   -0.235562
     16          1           0        0.871580    2.843677   -0.185647
     17          1           0        0.759439   -1.510829   -0.293916
     18          1           0        1.445451    0.514852   -1.275747
     19          6           0        2.404257    0.760016    0.630277
     20          1           0        2.988781    1.634767    0.333039
     21          1           0        3.034022   -0.129304    0.523895
     22          1           0        2.138455    0.869403    1.684934
     23          8           0        3.876643   -0.802759    0.295128
     24          8           0        5.040021   -0.879021   -0.600899
     25          1           0        5.711732   -0.473080   -0.022432
 ---------------------------------------------------------------------
 Rotational constants (GHZ):           1.8438274           0.3553845           0.3046642
 Standard basis: 6-311+G(2df,2p) (5D, 7F)
 There are   615 symmetry adapted cartesian basis functions of A   symmetry.
 There are   550 symmetry adapted basis functions of A   symmetry.
   550 basis functions,   808 primitive gaussians,   615 cartesian basis functions
    47 alpha electrons       47 beta electrons
       nuclear repulsion energy       717.7278339637 Hartrees.
 NAtoms=   25 NActive=   25 NUniq=   25 SFac= 1.00D+00 NAtFMM=   60 NAOKFM=F Big=F
 Integral buffers will be    131072 words long.
 Raffenetti 2 integral format.
 Two-electron integral symmetry is turned on.
 One-electron integrals computed using PRISM.
 NBasis=   550 RedAO= T EigKep=  1.07D-06  NBF=   550
 NBsUse=   549 1.00D-06 EigRej=  5.89D-07 NBFU=   549
 ExpMin= 4.38D-02 ExpMax= 8.59D+03 ExpMxC= 1.30D+03 IAcc=2 IRadAn=         4 AccDes= 0.00D+00
 Harris functional with IExCor= 1009 and IRadAn=       4 diagonalized for initial guess.
 HarFok:  IExCor= 1009 AccDes= 0.00D+00 IRadAn=         4 IDoV= 1 UseB2=F ITyADJ=14
 ICtDFT=  3500011 ScaDFX=  1.000000  1.000000  1.000000  1.000000
 FoFCou: FMM=F IPFlag=           0 FMFlag=      100000 FMFlg1=           0
         NFxFlg=           0 DoJE=T BraDBF=F KetDBF=T FulRan=T
         wScrn=  0.000000 ICntrl=       500 IOpCl=  0 I1Cent=   200000004 NGrid=           0
         NMat0=    1 NMatS0=      1 NMatT0=    0 NMatD0=    1 NMtDS0=    0 NMtDT0=    0
 Petite list used in FoFCou.
 Requested convergence on RMS density matrix=1.00D-08 within 128 cycles.
 Requested convergence on MAX density matrix=1.00D-06.
 Requested convergence on             energy=1.00D-06.
 No special actions if energy rises.
 Restarting incremental Fock formation.
 SCF Done:  E(RM062X) =  -576.434869801     A.U. after   21 cycles
            NFock= 21  Conv=0.74D-08     -V/T= 2.0038

 **********************************************************************

            Population analysis using the SCF density.

 **********************************************************************

 Orbital symmetries:
       Occupied  (A) (A) (A) (A) (A) (A) (A) (A) (A) (A) (A) (A)
                 (A) (A) (A) (A) (A) (A) (A) (A) (A) (A) (A) (A)
                 (A) (A) (A) (A) (A) (A) (A) (A) (A) (A) (A) (A)
                 (A) (A) (A) (A) (A) (A) (A) (A) (A) (A) (A)
       Virtual   (A) (A) (A) (A) (A) (A) (A) (A) (A) (A) (A) (A)
                 (A) (A) (A) (A) (A) (A) (A) (A) (A) (A) (A) (A)
                 (A) (A) (A) (A) (A) (A) (A) (A) (A) (A) (A) (A)
                 (A) (A) (A) (A) (A) (A) (A) (A) (A) (A) (A) (A)
                 (A) (A) (A) (A) (A) (A) (A) (A) (A) (A) (A) (A)
                 (A) (A) (A) (A) (A) (A) (A) (A) (A) (A) (A) (A)
                 (A) (A) (A) (A) (A) (A) (A) (A) (A) (A) (A) (A)
                 (A) (A) (A) (A) (A) (A) (A) (A) (A) (A) (A) (A)
                 (A) (A) (A) (A) (A) (A) (A) (A) (A) (A) (A) (A)
                 (A) (A) (A) (A) (A) (A) (A) (A) (A) (A) (A) (A)
                 (A) (A) (A) (A) (A) (A) (A) (A) (A) (A) (A) (A)
                 (A) (A) (A) (A) (A) (A) (A) (A) (A) (A) (A) (A)
                 (A) (A) (A) (A) (A) (A) (A) (A) (A) (A) (A) (A)
                 (A) (A) (A) (A) (A) (A) (A) (A) (A) (A) (A) (A)
                 (A) (A) (A) (A) (A) (A) (A) (A) (A) (A) (A) (A)
                 (A) (A) (A) (A) (A) (A) (A) (A) (A) (A) (A) (A)
                 (A) (A) (A) (A) (A) (A) (A) (A) (A) (A) (A) (A)
                 (A) (A) (A) (A) (A) (A) (A) (A) (A) (A) (A) (A)
                 (A) (A) (A) (A) (A) (A) (A) (A) (A) (A) (A) (A)
                 (A) (A) (A) (A) (A) (A) (A) (A) (A) (A) (A) (A)
                 (A) (A) (A) (A) (A) (A) (A) (A) (A) (A) (A) (A)
                 (A) (A) (A) (A) (A) (A) (A) (A) (A) (A) (A) (A)
                 (A) (A) (A) (A) (A) (A) (A) (A) (A) (A) (A) (A)
                 (A) (A) (A) (A) (A) (A) (A) (A) (A) (A) (A) (A)
                 (A) (A) (A) (A) (A) (A) (A) (A) (A) (A) (A) (A)
                 (A) (A) (A) (A) (A) (A) (A) (A) (A) (A) (A) (A)
                 (A) (A) (A) (A) (A) (A) (A) (A) (A) (A) (A) (A)
                 (A) (A) (A) (A) (A) (A) (A) (A) (A) (A) (A) (A)
                 (A) (A) (A) (A) (A) (A) (A) (A) (A) (A) (A) (A)
                 (A) (A) (A) (A) (A) (A) (A) (A) (A) (A) (A) (A)
                 (A) (A) (A) (A) (A) (A) (A) (A) (A) (A) (A) (A)
                 (A) (A) (A) (A) (A) (A) (A) (A) (A) (A) (A) (A)
                 (A) (A) (A) (A) (A) (A) (A) (A) (A) (A) (A) (A)
                 (A) (A) (A) (A) (A) (A) (A) (A) (A) (A) (A) (A)
                 (A) (A) (A) (A) (A) (A) (A) (A) (A) (A) (A) (A)
                 (A) (A) (A) (A) (A) (A) (A) (A) (A) (A) (A) (A)
                 (A) (A) (A) (A) (A) (A) (A) (A) (A) (A) (A) (A)
                 (A) (A) (A) (A) (A) (A) (A) (A) (A) (A) (A) (A)
                 (A) (A) (A) (A) (A) (A) (A) (A) (A) (A) (A) (A)
                 (A) (A) (A) (A) (A) (A) (A) (A) (A) (A) (A) (A)
                 (A) (A) (A) (A) (A) (A) (A) (A) (A) (A) (A) (A)
                 (A) (A) (A) (A) (A) (A) (A) (A) (A) (A)
 The electronic state is 1-A.
 Alpha  occ. eigenvalues --  -19.64293 -19.60070 -10.60960 -10.59038 -10.58954
 Alpha  occ. eigenvalues --  -10.57998 -10.57750 -10.57614 -10.57201 -10.57183
 Alpha  occ. eigenvalues --  -10.57178 -10.57028 -10.51570  -1.16628  -1.00774
 Alpha  occ. eigenvalues --   -0.96084  -0.94334  -0.89683  -0.87597  -0.84475
 Alpha  occ. eigenvalues --   -0.77633  -0.72459  -0.70895  -0.70311  -0.61628
 Alpha  occ. eigenvalues --   -0.60751  -0.58701  -0.57407  -0.54452  -0.53573
 Alpha  occ. eigenvalues --   -0.52486  -0.51381  -0.50364  -0.49726  -0.48124
 Alpha  occ. eigenvalues --   -0.45399  -0.45107  -0.44247  -0.42789  -0.41738
 Alpha  occ. eigenvalues --   -0.39732  -0.38545  -0.35582  -0.34769  -0.32094
 Alpha  occ. eigenvalues --   -0.30968  -0.21570
 Alpha virt. eigenvalues --   -0.13232  -0.02704  -0.00198  -0.00052   0.00939
 Alpha virt. eigenvalues --    0.01660   0.03095   0.03240   0.04181   0.04699
 Alpha virt. eigenvalues --    0.04943   0.05275   0.05981   0.06201   0.06608
 Alpha virt. eigenvalues --    0.07607   0.08801   0.09175   0.09893   0.10258
 Alpha virt. eigenvalues --    0.10687   0.11153   0.11875   0.12210   0.12600
 Alpha virt. eigenvalues --    0.12896   0.13428   0.14163   0.15461   0.15856
 Alpha virt. eigenvalues --    0.16155   0.17120   0.17381   0.17546   0.17950
 Alpha virt. eigenvalues --    0.18197   0.18464   0.19277   0.19651   0.19800
 Alpha virt. eigenvalues --    0.20060   0.20790   0.20853   0.20982   0.21605
 Alpha virt. eigenvalues --    0.22018   0.22396   0.22902   0.23111   0.23733
 Alpha virt. eigenvalues --    0.24184   0.24940   0.25186   0.25612   0.25695
 Alpha virt. eigenvalues --    0.26485   0.26964   0.27229   0.28205   0.28400
 Alpha virt. eigenvalues --    0.28677   0.28950   0.29481   0.30210   0.31331
 Alpha virt. eigenvalues --    0.32073   0.32965   0.33964   0.34454   0.34825
 Alpha virt. eigenvalues --    0.37006   0.37276   0.38222   0.39676   0.41458
 Alpha virt. eigenvalues --    0.41567   0.43415   0.43838   0.45881   0.47376
 Alpha virt. eigenvalues --    0.47864   0.48814   0.49570   0.50760   0.51347
 Alpha virt. eigenvalues --    0.51796   0.53099   0.53753   0.54134   0.54782
 Alpha virt. eigenvalues --    0.55074   0.55976   0.56241   0.56513   0.57584
 Alpha virt. eigenvalues --    0.57968   0.58428   0.59259   0.60042   0.60858
 Alpha virt. eigenvalues --    0.61683   0.62447   0.62915   0.63438   0.64466
 Alpha virt. eigenvalues --    0.64915   0.65057   0.66079   0.66437   0.67105
 Alpha virt. eigenvalues --    0.67219   0.67421   0.68125   0.68717   0.69249
 Alpha virt. eigenvalues --    0.69616   0.70927   0.71120   0.71638   0.72135
 Alpha virt. eigenvalues --    0.73764   0.73992   0.74555   0.75069   0.76639
 Alpha virt. eigenvalues --    0.77568   0.78083   0.79491   0.79888   0.80283
 Alpha virt. eigenvalues --    0.80845   0.81350   0.82630   0.83772   0.84960
 Alpha virt. eigenvalues --    0.86113   0.87570   0.88529   0.89101   0.90395
 Alpha virt. eigenvalues --    0.90908   0.92623   0.93773   0.95641   0.97119
 Alpha virt. eigenvalues --    0.98097   0.98266   0.98843   0.99294   1.01470
 Alpha virt. eigenvalues --    1.02297   1.03522   1.04024   1.04968   1.05773
 Alpha virt. eigenvalues --    1.07221   1.07863   1.08595   1.09557   1.10139
 Alpha virt. eigenvalues --    1.11095   1.11886   1.13237   1.14474   1.14501
 Alpha virt. eigenvalues --    1.16739   1.18041   1.18586   1.19369   1.20188
 Alpha virt. eigenvalues --    1.20638   1.21564   1.23816   1.25294   1.25962
 Alpha virt. eigenvalues --    1.26455   1.27787   1.28648   1.29560   1.30228
 Alpha virt. eigenvalues --    1.31083   1.31216   1.31933   1.33284   1.34086
 Alpha virt. eigenvalues --    1.35448   1.35795   1.36255   1.36408   1.37455
 Alpha virt. eigenvalues --    1.38262   1.38358   1.39841   1.40778   1.41539
 Alpha virt. eigenvalues --    1.43523   1.44492   1.45066   1.46057   1.46561
 Alpha virt. eigenvalues --    1.47054   1.48391   1.49533   1.50547   1.51685
 Alpha virt. eigenvalues --    1.53370   1.53845   1.54935   1.57819   1.59343
 Alpha virt. eigenvalues --    1.60666   1.61860   1.63463   1.65180   1.65744
 Alpha virt. eigenvalues --    1.67232   1.67912   1.68474   1.69467   1.69855
 Alpha virt. eigenvalues --    1.71163   1.72261   1.73769   1.75463   1.76323
 Alpha virt. eigenvalues --    1.77947   1.79539   1.82832   1.84380   1.84736
 Alpha virt. eigenvalues --    1.87066   1.91727   1.95243   1.99395   1.99906
 Alpha virt. eigenvalues --    2.00962   2.02744   2.04958   2.12380   2.16459
 Alpha virt. eigenvalues --    2.24702   2.26518   2.30184   2.36134   2.46345
 Alpha virt. eigenvalues --    2.48970   2.49302   2.52047   2.54831   2.57047
 Alpha virt. eigenvalues --    2.57778   2.59308   2.62925   2.63773   2.65576
 Alpha virt. eigenvalues --    2.67208   2.67581   2.67981   2.69172   2.70728
 Alpha virt. eigenvalues --    2.72158   2.72904   2.73257   2.74335   2.74617
 Alpha virt. eigenvalues --    2.75761   2.76967   2.77396   2.78625   2.79063
 Alpha virt. eigenvalues --    2.79980   2.81230   2.81688   2.82174   2.83106
 Alpha virt. eigenvalues --    2.83573   2.83933   2.84761   2.85198   2.86260
 Alpha virt. eigenvalues --    2.86855   2.88329   2.89398   2.89864   2.90743
 Alpha virt. eigenvalues --    2.91482   2.92057   2.94402   2.95763   2.97504
 Alpha virt. eigenvalues --    2.98398   3.00200   3.02446   3.03614   3.04273
 Alpha virt. eigenvalues --    3.05147   3.08134   3.10144   3.10632   3.11488
 Alpha virt. eigenvalues --    3.12665   3.14601   3.14713   3.15403   3.16848
 Alpha virt. eigenvalues --    3.17134   3.17846   3.18794   3.19788   3.21577
 Alpha virt. eigenvalues --    3.22120   3.22823   3.23090   3.25018   3.26265
 Alpha virt. eigenvalues --    3.27251   3.28473   3.29153   3.31039   3.31700
 Alpha virt. eigenvalues --    3.33536   3.34086   3.34247   3.36157   3.36974
 Alpha virt. eigenvalues --    3.37493   3.38851   3.39155   3.40177   3.41857
 Alpha virt. eigenvalues --    3.42434   3.43372   3.44104   3.44756   3.45414
 Alpha virt. eigenvalues --    3.47267   3.47951   3.50462   3.51574   3.52547
 Alpha virt. eigenvalues --    3.53954   3.55884   3.57444   3.57518   3.58678
 Alpha virt. eigenvalues --    3.62629   3.63789   3.64517   3.65592   3.66116
 Alpha virt. eigenvalues --    3.66776   3.67912   3.70190   3.70918   3.71857
 Alpha virt. eigenvalues --    3.72166   3.72816   3.73231   3.74008   3.75073
 Alpha virt. eigenvalues --    3.75820   3.78762   3.80176   3.80439   3.81670
 Alpha virt. eigenvalues --    3.82267   3.83121   3.84982   3.86741   3.89559
 Alpha virt. eigenvalues --    3.90339   3.90886   3.94286   3.94464   3.96461
 Alpha virt. eigenvalues --    3.96906   3.98453   3.98955   4.00759   4.02748
 Alpha virt. eigenvalues --    4.04181   4.05992   4.07098   4.09578   4.11049
 Alpha virt. eigenvalues --    4.12161   4.13561   4.13777   4.15068   4.15931
 Alpha virt. eigenvalues --    4.18951   4.19972   4.21598   4.21932   4.23149
 Alpha virt. eigenvalues --    4.27213   4.27909   4.28778   4.29287   4.29851
 Alpha virt. eigenvalues --    4.31057   4.31556   4.33248   4.34027   4.35574
 Alpha virt. eigenvalues --    4.37812   4.38132   4.39254   4.39952   4.41600
 Alpha virt. eigenvalues --    4.42874   4.43315   4.44255   4.46541   4.47480
 Alpha virt. eigenvalues --    4.49193   4.51032   4.51733   4.54686   4.55702
 Alpha virt. eigenvalues --    4.57111   4.58271   4.62839   4.64798   4.65725
 Alpha virt. eigenvalues --    4.67647   4.68941   4.70377   4.72796   4.73476
 Alpha virt. eigenvalues --    4.76109   4.77077   4.81908   4.83099   4.86974
 Alpha virt. eigenvalues --    4.90989   4.93602   4.95763   4.96982   4.99223
 Alpha virt. eigenvalues --    5.03968   5.05784   5.07602   5.09772   5.13696
 Alpha virt. eigenvalues --    5.13935   5.15335   5.16963   5.17815   5.24232
 Alpha virt. eigenvalues --    5.25621   5.28704   5.30265   5.31575   5.37782
 Alpha virt. eigenvalues --    5.39427   5.43413   5.45424   5.48238   5.49042
 Alpha virt. eigenvalues --    5.54436   5.55681   5.59340   5.60893   5.63071
 Alpha virt. eigenvalues --    5.66512   5.68184   5.71315   5.72096   5.77142
 Alpha virt. eigenvalues --    5.84344   5.94907   5.99095   6.04875   6.11214
 Alpha virt. eigenvalues --    6.46599   6.64996   6.83895   6.84942   6.93920
 Alpha virt. eigenvalues --    6.99231   7.06330   7.11421   7.26051   7.32864
 Alpha virt. eigenvalues --    7.47744   7.62862   7.81850   8.12029  23.88568
 Alpha virt. eigenvalues --   24.16044  24.34379  24.39123  24.48811  24.51693
 Alpha virt. eigenvalues --   24.55964  24.71763  24.75134  24.94081  25.15015
 Alpha virt. eigenvalues --   50.04540  50.09649
          Condensed to atoms (all electrons):
               1          2          3          4          5          6
     1  C    7.226803  -0.169992  -0.358878   0.341658  -0.011173   0.027245
     2  C   -0.169992   6.700186  -0.363299   0.020502  -0.030950   0.349338
     3  C   -0.358878  -0.363299   7.797150  -0.022019   0.454573   0.012669
     4  H    0.341658   0.020502  -0.022019   0.477716   0.013010  -0.006348
     5  C   -0.011173  -0.030950   0.454573   0.013010   8.070899  -0.027568
     6  H    0.027245   0.349338   0.012669  -0.006348  -0.027568   0.472988
     7  C    0.491241  -0.303176  -2.146054  -0.029893  -2.138933   0.034382
     8  H    0.000281   0.014540  -0.011729  -0.000094   0.413960  -0.006147
     9  C   -0.019396   0.509196  -2.211975   0.041456  -1.589402  -0.028532
    10  H    0.013451   0.003097   0.409170  -0.005892  -0.012260  -0.000092
    11  C   -2.138175   0.686818   3.946462   0.012245  -1.483855  -0.000774
    12  C    0.861392  -0.744352  -1.053091   0.000688   3.118948   0.011633
    13  C   -0.016584  -0.323786   0.822879  -0.000764  -1.314241  -0.000866
    14  H    0.000460   0.014773  -0.001462  -0.000002   0.039189  -0.000005
    15  C   -0.001592  -0.043333  -1.188268   0.000465   0.661020   0.000611
    16  H   -0.001130   0.001855  -0.000373   0.000000   0.019649  -0.000000
    17  H    0.044985  -0.003665   0.084197  -0.000018  -0.000494  -0.000002
    18  H   -0.001877  -0.001719   0.031256  -0.000000  -0.015871  -0.000000
    19  C   -0.026341   0.007926   0.108245   0.000003  -0.076865  -0.000003
    20  H    0.000368   0.000114   0.002352   0.000000   0.000300  -0.000000
    21  H    0.000295   0.000106  -0.012507  -0.000000   0.002701   0.000000
    22  H   -0.000433  -0.000431   0.003752  -0.000000  -0.001802  -0.000000
    23  O   -0.000066  -0.000066   0.009429   0.000000  -0.000647  -0.000000
    24  O   -0.000038   0.000017  -0.000704   0.000000  -0.000212   0.000000
    25  H   -0.000003   0.000000  -0.000054   0.000000   0.000003   0.000000
               7          8          9         10         11         12
     1  C    0.491241   0.000281  -0.019396   0.013451  -2.138175   0.861392
     2  C   -0.303176   0.014540   0.509196   0.003097   0.686818  -0.744352
     3  C   -2.146054  -0.011729  -2.211975   0.409170   3.946462  -1.053091
     4  H   -0.029893  -0.000094   0.041456  -0.005892   0.012245   0.000688
     5  C   -2.138933   0.413960  -1.589402  -0.012260  -1.483855   3.118948
     6  H    0.034382  -0.006147  -0.028532  -0.000092  -0.000774   0.011633
     7  C   16.444001  -0.044528  -1.817501  -0.045311  -2.950292  -2.438694
     8  H   -0.044528   0.474631  -0.066843   0.000034   0.005645   0.039403
     9  C   -1.817501  -0.066843  20.792772  -0.049553  -9.487199  -1.280098
    10  H   -0.045311   0.000034  -0.049553   0.463391   0.044461   0.004447
    11  C   -2.950292   0.005645  -9.487199   0.044461  25.506764  -5.646847
    12  C   -2.438694   0.039403  -1.280098   0.004447  -5.646847  14.393161
    13  C   -0.110427   0.014908   0.321348  -0.001227   2.780939  -3.917722
    14  H    0.006120   0.002073  -0.069544   0.000008  -0.011445   0.372870
    15  C    0.696192   0.002218   0.731224   0.002137  -5.261131   2.530083
    16  H    0.023716  -0.000026  -0.033307  -0.000002   0.002732   0.031216
    17  H   -0.089481   0.000010   0.041809   0.001371   0.320641   0.000510
    18  H   -0.036350  -0.000003  -0.112990  -0.000038   0.186116  -0.109315
    19  C   -0.101736  -0.000067  -0.248443   0.000935   0.790768  -0.456700
    20  H    0.002265   0.000000   0.001316   0.000001   0.044971   0.047597
    21  H    0.015774  -0.000000   0.067828   0.000001  -0.072535   0.032915
    22  H   -0.006016   0.000000  -0.027214  -0.000007   0.018549  -0.046817
    23  O   -0.002938   0.000000  -0.029669   0.000007  -0.030476  -0.024422
    24  O   -0.000971  -0.000000   0.004177  -0.000001  -0.003526  -0.004077
    25  H    0.000014   0.000000  -0.000393   0.000000   0.000219   0.000006
              13         14         15         16         17         18
     1  C   -0.016584   0.000460  -0.001592  -0.001130   0.044985  -0.001877
     2  C   -0.323786   0.014773  -0.043333   0.001855  -0.003665  -0.001719
     3  C    0.822879  -0.001462  -1.188268  -0.000373   0.084197   0.031256
     4  H   -0.000764  -0.000002   0.000465   0.000000  -0.000018  -0.000000
     5  C   -1.314241   0.039189   0.661020   0.019649  -0.000494  -0.015871
     6  H   -0.000866  -0.000005   0.000611  -0.000000  -0.000002  -0.000000
     7  C   -0.110427   0.006120   0.696192   0.023716  -0.089481  -0.036350
     8  H    0.014908   0.002073   0.002218  -0.000026   0.000010  -0.000003
     9  C    0.321348  -0.069544   0.731224  -0.033307   0.041809  -0.112990
    10  H   -0.001227   0.000008   0.002137  -0.000002   0.001371  -0.000038
    11  C    2.780939  -0.011445  -5.261131   0.002732   0.320641   0.186116
    12  C   -3.917722   0.372870   2.530083   0.031216   0.000510  -0.109315
    13  C   10.369035   0.025042  -2.972518   0.308932   0.028985  -0.012402
    14  H    0.025042   0.470338  -0.005500  -0.007550   0.000018  -0.000413
    15  C   -2.972518  -0.005500  10.896991   0.019609  -0.082911   0.461042
    16  H    0.308932  -0.007550   0.019609   0.471290  -0.000108  -0.002094
    17  H    0.028985   0.000018  -0.082911  -0.000108   0.451366  -0.007819
    18  H   -0.012402  -0.000413   0.461042  -0.002094  -0.007819   0.484314
    19  C    0.674884   0.001686  -1.033721  -0.007398   0.001940  -0.068339
    20  H   -0.002447  -0.000012  -0.102433   0.002118   0.000038  -0.004924
    21  H   -0.022327   0.000028  -0.083440   0.000821   0.001451  -0.015756
    22  H   -0.025305  -0.000122   0.080268  -0.000720  -0.000209   0.006217
    23  O    0.008862  -0.000018   0.163491  -0.000508  -0.001086   0.022619
    24  O    0.012171   0.000001  -0.050529   0.000061   0.000388  -0.003451
    25  H   -0.002764  -0.000000  -0.000843   0.000003   0.000018  -0.000047
              19         20         21         22         23         24
     1  C   -0.026341   0.000368   0.000295  -0.000433  -0.000066  -0.000038
     2  C    0.007926   0.000114   0.000106  -0.000431  -0.000066   0.000017
     3  C    0.108245   0.002352  -0.012507   0.003752   0.009429  -0.000704
     4  H    0.000003   0.000000  -0.000000  -0.000000   0.000000   0.000000
     5  C   -0.076865   0.000300   0.002701  -0.001802  -0.000647  -0.000212
     6  H   -0.000003  -0.000000   0.000000  -0.000000  -0.000000   0.000000
     7  C   -0.101736   0.002265   0.015774  -0.006016  -0.002938  -0.000971
     8  H   -0.000067   0.000000  -0.000000   0.000000   0.000000  -0.000000
     9  C   -0.248443   0.001316   0.067828  -0.027214  -0.029669   0.004177
    10  H    0.000935   0.000001   0.000001  -0.000007   0.000007  -0.000001
    11  C    0.790768   0.044971  -0.072535   0.018549  -0.030476  -0.003526
    12  C   -0.456700   0.047597   0.032915  -0.046817  -0.024422  -0.004077
    13  C    0.674884  -0.002447  -0.022327  -0.025305   0.008862   0.012171
    14  H    0.001686  -0.000012   0.000028  -0.000122  -0.000018   0.000001
    15  C   -1.033721  -0.102433  -0.083440   0.080268   0.163491  -0.050529
    16  H   -0.007398   0.002118   0.000821  -0.000720  -0.000508   0.000061
    17  H    0.001940   0.000038   0.001451  -0.000209  -0.001086   0.000388
    18  H   -0.068339  -0.004924  -0.015756   0.006217   0.022619  -0.003451
    19  C    6.329635   0.372196   0.321978   0.389536  -0.252085   0.131492
    20  H    0.372196   0.512508   0.011206  -0.026029  -0.009286  -0.002235
    21  H    0.321978   0.011206   0.382347  -0.046656  -0.109332   0.013072
    22  H    0.389536  -0.026029  -0.046656   0.490224   0.025439  -0.002353
    23  O   -0.252085  -0.009286  -0.109332   0.025439   8.733097  -0.041839
    24  O    0.131492  -0.002235   0.013072  -0.002353  -0.041839   7.965539
    25  H    0.000968   0.000290   0.000776   0.000116  -0.035260   0.240712
              25
     1  C   -0.000003
     2  C    0.000000
     3  C   -0.000054
     4  H    0.000000
     5  C    0.000003
     6  H    0.000000
     7  C    0.000014
     8  H    0.000000
     9  C   -0.000393
    10  H    0.000000
    11  C    0.000219
    12  C    0.000006
    13  C   -0.002764
    14  H   -0.000000
    15  C   -0.000843
    16  H    0.000003
    17  H    0.000018
    18  H   -0.000047
    19  C    0.000968
    20  H    0.000290
    21  H    0.000776
    22  H    0.000116
    23  O   -0.035260
    24  O    0.240712
    25  H    0.554840
 Mulliken charges:
               1
     1  C   -0.262501
     2  C   -0.323699
     3  C   -0.311720
     4  H    0.157286
     5  C   -0.089977
     6  H    0.161471
     7  C    0.548596
     8  H    0.161732
     9  C    0.560934
    10  H    0.171871
    11  C   -1.261077
    12  C    0.277266
    13  C   -0.644605
    14  H    0.163469
    15  C    0.580868
    16  H    0.171214
    17  H    0.208067
    18  H    0.201844
    19  C   -0.860495
    20  H    0.149728
    21  H    0.511257
    22  H    0.170012
    23  O   -0.425246
    24  O   -0.257694
    25  H    0.241399
 Sum of Mulliken charges =  -0.00000
 Mulliken charges with hydrogens summed into heavy atoms:
               1
     1  C   -0.105215
     2  C   -0.162228
     3  C   -0.139849
     5  C    0.071756
     7  C    0.548596
     9  C    0.560934
    11  C   -1.053010
    12  C    0.440735
    13  C   -0.473391
    15  C    0.782712
    19  C   -0.029499
    23  O   -0.425246
    24  O   -0.016295
 Electronic spatial extent (au):  <R**2>=           3456.2309
 Charge=              0.0000 electrons
 Dipole moment (field-independent basis, Debye):
    X=             -6.1863    Y=              2.2552    Z=             -0.0125  Tot=              6.5845
 Quadrupole moment (field-independent basis, Debye-Ang):
   XX=            -79.2231   YY=            -71.2255   ZZ=            -83.1283
   XY=             11.2694   XZ=              3.4226   YZ=             -0.8069
 Traceless Quadrupole moment (field-independent basis, Debye-Ang):
   XX=             -1.3642   YY=              6.6335   ZZ=             -5.2693
   XY=             11.2694   XZ=              3.4226   YZ=             -0.8069
 Octapole moment (field-independent basis, Debye-Ang**2):
  XXX=            -35.5249  YYY=             -0.4970  ZZZ=             -2.2941  XYY=            -15.4019
  XXY=             38.6419  XXZ=             20.3848  XZZ=             15.2708  YZZ=             -1.4876
  YYZ=             -2.0892  XYZ=             -1.8683
 Hexadecapole moment (field-independent basis, Debye-Ang**3):
 XXXX=          -3088.1449 YYYY=           -724.5714 ZZZZ=           -148.4258 XXXY=            177.0295
 XXXZ=            131.1713 YYYX=              6.3540 YYYZ=             -5.1561 ZZZX=             -6.6715
 ZZZY=              1.5949 XXYY=           -733.3601 XXZZ=           -690.5026 YYZZ=           -174.7707
 XXYZ=            -18.4518 YYXZ=             -4.2656 ZZXY=             -7.1991
 N-N= 7.177278339637D+02 E-N=-2.778955313019D+03  KE= 5.742242917769D+02
 Calling FoFJK, ICntrl=      2127 FMM=F ISym2X=0 I1Cent= 0 IOpClX= 0 NMat=1 NMatS=1 NMatT=0.
 ***** Axes restored to original set *****
 -------------------------------------------------------------------
 Center     Atomic                   Forces (Hartrees/Bohr)
 Number     Number              X              Y              Z
 -------------------------------------------------------------------
      1        6           0.009089511    0.015450612    0.009516472
      2        6           0.007253760   -0.009675784   -0.008368080
      3        6          -0.027843346   -0.001512779    0.004242993
      4        1           0.004613514   -0.001232089   -0.001236278
      5        6          -0.012601014   -0.001026655    0.004364631
      6        1           0.003474547    0.002016986    0.000495917
      7        6           0.020272370   -0.028867250   -0.030104409
      8        1           0.001542826    0.003680545    0.002069066
      9        6           0.056332683    0.056341071    0.002845591
     10        1           0.001776384   -0.003257383   -0.002537741
     11        6          -0.021368804   -0.102815925    0.021398007
     12        6          -0.031542445    0.011355941    0.010453046
     13        6           0.020475588    0.014534077    0.009583251
     14        1          -0.003563320    0.003285837    0.003114028
     15        6          -0.034831502    0.014962201   -0.013269421
     16        1          -0.001387803    0.001945832    0.002508665
     17        1          -0.003039831    0.022271499   -0.012577621
     18        1           0.002557284    0.003900010    0.006471588
     19        6          -0.013684112   -0.063782535   -0.080110542
     20        1          -0.001166397    0.000403829    0.001476841
     21        1          -0.003468755   -0.022335710    0.000600115
     22        1          -0.001039491    0.002263284   -0.003251838
     23        8           0.045681454    0.090385859    0.092957860
     24        8          -0.010076156   -0.003693261   -0.030114764
     25        1          -0.007456942   -0.004598213    0.009472622
 -------------------------------------------------------------------
 Cartesian Forces:  Max     0.102815925 RMS     0.027642399

 GradGradGradGradGradGradGradGradGradGradGradGradGradGradGradGradGradGrad
 Berny optimization.
 FormGI is forming the generalized inverse of G from B-inverse, IUseBI=4.
 Internal  Forces:  Max     0.110580095 RMS     0.015881732
 Search for a local minimum.
 Step number   1 out of a maximum of  150
 All quantities printed in internal units (Hartrees-Bohrs-Radians)
 Mixed Optimization -- RFO/linear search
 Second derivative matrix not updated -- first step.
 ITU=  0
     Eigenvalues ---    0.00230   0.00230   0.00230   0.00363   0.00475
     Eigenvalues ---    0.01137   0.01370   0.01611   0.01781   0.01824
     Eigenvalues ---    0.02075   0.02157   0.02159   0.02161   0.02181
     Eigenvalues ---    0.02183   0.02187   0.02272   0.04177   0.04753
     Eigenvalues ---    0.05241   0.05290   0.06361   0.10641   0.11157
     Eigenvalues ---    0.13713   0.15970   0.15996   0.15998   0.15999
     Eigenvalues ---    0.16000   0.16000   0.16000   0.16000   0.16000
     Eigenvalues ---    0.16513   0.19112   0.22000   0.22229   0.22721
     Eigenvalues ---    0.24121   0.24650   0.25000   0.27582   0.28352
     Eigenvalues ---    0.29612   0.30155   0.33109   0.34439   0.34440
     Eigenvalues ---    0.34454   0.34466   0.35091   0.35099   0.35111
     Eigenvalues ---    0.35112   0.35124   0.35145   0.35690   0.40825
     Eigenvalues ---    0.42212   0.45552   0.46456   0.46551   0.46833
     Eigenvalues ---    0.52370   0.579371000.000001000.000001000.00000
     Eigenvalues --- 1000.000001000.000001000.000001000.000001000.00000
     Eigenvalues --- 1000.000001000.000001000.000001000.000001000.00000
     Eigenvalues --- 1000.000001000.000001000.000001000.000001000.00000
     Eigenvalues --- 1000.000001000.000001000.000001000.000001000.00000
     Eigenvalues --- 1000.000001000.000001000.000001000.000001000.00000
     Eigenvalues --- 1000.000001000.000001000.000001000.000001000.00000
     Eigenvalues --- 1000.000001000.000001000.000001000.000001000.00000
     Eigenvalues --- 1000.000001000.000001000.000001000.000001000.00000
     Eigenvalues --- 1000.000001000.000001000.000001000.000001000.00000
     Eigenvalues --- 1000.000001000.000001000.000001000.000001000.00000
     Eigenvalues --- 1000.000001000.000001000.000001000.000001000.00000
     Eigenvalues --- 1000.000001000.000001000.000001000.000001000.00000
 RFO step:  Lambda=-4.61181849D-02 EMin= 2.30000000D-03
 Linear search not attempted -- first point.
 Maximum step size (   0.300) exceeded in Quadratic search.
    -- Step size scaled by   0.873
 Iteration  1 RMS(Cart)=  0.05234149 RMS(Int)=  0.00442024
 Iteration  2 RMS(Cart)=  0.00532071 RMS(Int)=  0.00200072
 Iteration  3 RMS(Cart)=  0.00004229 RMS(Int)=  0.00200051
 Iteration  4 RMS(Cart)=  0.00000001 RMS(Int)=  0.00200051
 Iteration  1 RMS(Cart)=  0.00000000 RMS(Int)=  0.00000000
 Variable       Old X    -DE/DX   Delta X   Delta X   Delta X     New X
                                 (Linear)    (Quad)   (Total)
    R1        2.63121   0.00955   0.00000   0.01524   0.01513   2.64634
    R2        2.63297  -0.01679   0.00000  -0.02904  -0.02900   2.60397
    R3        2.05441  -0.00486   0.00000  -0.01067  -0.01067   2.04374
    R4        2.63210  -0.00868   0.00000  -0.01516  -0.01531   2.61679
    R5        2.05475  -0.00404   0.00000  -0.00887  -0.00887   2.04588
    R6        2.63792   0.01146   0.00000   0.02007   0.02022   2.65813
    R7        2.05515  -0.00418   0.00000  -0.00919  -0.00919   2.04596
    R8        2.63856  -0.00034   0.00000  -0.00007  -0.00011   2.63845
    R9        2.05493  -0.00417   0.00000  -0.00915  -0.00915   2.04578
   R10        2.64272   0.01418   0.00000   0.02469   0.02465   2.66738
   R11        2.80964  -0.02970   0.00000  -0.06475  -0.06620   2.74344
   R12        2.87100  -0.06111   0.00000  -0.15609  -0.15481   2.71618
   R13        2.91787  -0.02955   0.00000  -0.08245  -0.08097   2.83690
   R14        2.06595  -0.00233   0.00000  -0.00521  -0.00521   2.06073
   R15        2.50981   0.01299   0.00000   0.01994   0.01863   2.52844
   R16        2.05495  -0.00449   0.00000  -0.00986  -0.00986   2.04509
   R17        2.86894  -0.01840   0.00000  -0.04384  -0.04384   2.82510
   R18        2.05528  -0.00285   0.00000  -0.00625  -0.00625   2.04903
   R19        2.06551   0.00492   0.00000   0.01098   0.01098   2.07650
   R20        2.91375   0.00780   0.00000   0.02064   0.02064   2.93439
   R21        2.06596  -0.00148   0.00000  -0.00331  -0.00331   2.06265
   R22        2.06907   0.09609   0.00000   0.00000   0.00000   2.06907
   R23        2.06570   0.00403   0.00000   0.00901   0.00901   2.07471
   R24        2.08375   0.11058   0.00000   0.00000   0.00000   2.08375
   R25        2.77869  -0.02682   0.00000  -0.05808  -0.05808   2.72061
   R26        1.84247  -0.01267   0.00000  -0.01941  -0.01941   1.82306
    A1        2.09294   0.00158   0.00000   0.00176   0.00182   2.09477
    A2        2.09516  -0.00008   0.00000   0.00215   0.00212   2.09728
    A3        2.09502  -0.00150   0.00000  -0.00387  -0.00390   2.09112
    A4        2.09367   0.00395   0.00000   0.00966   0.00954   2.10321
    A5        2.09492  -0.00176   0.00000  -0.00391  -0.00385   2.09107
    A6        2.09460  -0.00219   0.00000  -0.00576  -0.00570   2.08890
    A7        2.09987  -0.00060   0.00000  -0.00268  -0.00238   2.09749
    A8        2.08639   0.00202   0.00000   0.00867   0.00848   2.09487
    A9        2.09684  -0.00141   0.00000  -0.00582  -0.00601   2.09083
   A10        2.10073  -0.00046   0.00000  -0.00199  -0.00204   2.09869
   A11        2.08641   0.00195   0.00000   0.00827   0.00829   2.09470
   A12        2.09604  -0.00148   0.00000  -0.00626  -0.00624   2.08980
   A13        2.08839  -0.00232   0.00000  -0.00585  -0.00539   2.08300
   A14        2.08377   0.01011   0.00000   0.02784   0.02799   2.11176
   A15        2.11099  -0.00780   0.00000  -0.02200  -0.02261   2.08838
   A16        2.09069  -0.00214   0.00000  -0.00080  -0.00154   2.08915
   A17        2.08793   0.00253   0.00000   0.00939   0.00794   2.09588
   A18        2.10280  -0.00033   0.00000  -0.00788  -0.00578   2.09702
   A19        2.01799   0.01978   0.00000   0.08117   0.07580   2.09379
   A20        1.94679  -0.00152   0.00000   0.05882   0.04381   1.99060
   A21        1.93159   0.00203   0.00000   0.07752   0.06426   1.99585
   A22        2.08781   0.00224   0.00000   0.01674   0.01471   2.10252
   A23        2.09257  -0.00480   0.00000  -0.02382  -0.02291   2.06966
   A24        2.10255   0.00262   0.00000   0.00754   0.00845   2.11100
   A25        2.18423  -0.00647   0.00000  -0.01385  -0.01444   2.16979
   A26        2.07657   0.00535   0.00000   0.01617   0.01633   2.09290
   A27        2.02147   0.00119   0.00000  -0.00142  -0.00121   2.02025
   A28        1.97551  -0.00383   0.00000  -0.01574  -0.01377   1.96175
   A29        1.89141  -0.00419   0.00000  -0.01785  -0.01734   1.87407
   A30        1.90018   0.01219   0.00000   0.04644   0.04503   1.94521
   A31        1.88351   0.00571   0.00000   0.02612   0.02553   1.90903
   A32        1.92628  -0.00682   0.00000  -0.02195  -0.02242   1.90386
   A33        1.88453  -0.00321   0.00000  -0.01795  -0.01743   1.86710
   A34        1.92825   0.00158   0.00000   0.00231   0.00184   1.93009
   A35        1.93501  -0.01025   0.00000  -0.04799  -0.04810   1.88691
   A36        1.92755   0.00342   0.00000   0.01970   0.01986   1.94741
   A37        1.89226   0.00170   0.00000  -0.00224  -0.00273   1.88953
   A38        1.88836  -0.00060   0.00000   0.00662   0.00646   1.89482
   A39        1.89113   0.00440   0.00000   0.02286   0.02313   1.91426
   A40        2.84303   0.02495   0.00000   0.07352   0.07352   2.91655
   A41        2.43827  -0.02478   0.00000  -0.10489  -0.10489   2.33338
   A42        1.73346   0.00438   0.00000   0.01853   0.01853   1.75199
    D1        0.00633  -0.00042   0.00000  -0.00285  -0.00277   0.00356
    D2       -3.13287   0.00003   0.00000   0.00043   0.00040  -3.13246
    D3        3.13632   0.00005   0.00000   0.00177   0.00182   3.13814
    D4       -0.00288   0.00050   0.00000   0.00505   0.00499   0.00212
    D5       -0.00765  -0.00038   0.00000  -0.00455  -0.00456  -0.01221
    D6        3.11992   0.00099   0.00000   0.00934   0.00925   3.12917
    D7       -3.13764  -0.00086   0.00000  -0.00921  -0.00917   3.13637
    D8       -0.01007   0.00051   0.00000   0.00468   0.00464  -0.00543
    D9        0.00326   0.00016   0.00000   0.00086   0.00078   0.00403
   D10        3.14106   0.00096   0.00000   0.00722   0.00701  -3.13511
   D11       -3.14073  -0.00029   0.00000  -0.00241  -0.00239   3.14006
   D12       -0.00293   0.00051   0.00000   0.00394   0.00384   0.00092
   D13       -0.00062   0.00153   0.00000   0.01408   0.01391   0.01330
   D14        3.07748   0.00265   0.00000   0.02655   0.02618   3.10365
   D15       -3.12810   0.00012   0.00000  -0.00002   0.00002  -3.12808
   D16       -0.05001   0.00124   0.00000   0.01245   0.01228  -0.03773
   D17       -0.01149   0.00101   0.00000   0.00871   0.00863  -0.00286
   D18        3.13835   0.00171   0.00000   0.01079   0.01023  -3.13460
   D19        3.13391   0.00020   0.00000   0.00229   0.00238   3.13629
   D20        0.00057   0.00090   0.00000   0.00437   0.00398   0.00455
   D21        0.01013  -0.00182   0.00000  -0.01606  -0.01585  -0.00572
   D22       -3.06741  -0.00306   0.00000  -0.02928  -0.02863  -3.09604
   D23       -3.13984  -0.00245   0.00000  -0.01793  -0.01719   3.12616
   D24        0.06580  -0.00368   0.00000  -0.03115  -0.02997   0.03584
   D25       -3.04026  -0.00333   0.00000  -0.02550  -0.02438  -3.06464
   D26        0.07699  -0.00073   0.00000  -0.00355  -0.00370   0.07329
   D27        0.10969  -0.00265   0.00000  -0.02347  -0.02285   0.08684
   D28       -3.05624  -0.00005   0.00000  -0.00153  -0.00218  -3.05842
   D29        2.85328   0.00480   0.00000   0.06568   0.06787   2.92115
   D30        0.62610  -0.01384   0.00000  -0.16742  -0.16817   0.45793
   D31       -0.35226   0.00586   0.00000   0.07851   0.08034  -0.27191
   D32       -2.57944  -0.01278   0.00000  -0.15459  -0.15569  -2.73513
   D33        0.44864  -0.00596   0.00000  -0.08684  -0.08886   0.35978
   D34       -1.63987  -0.00787   0.00000  -0.09759  -0.10059  -1.74046
   D35        2.59771  -0.00841   0.00000  -0.09180  -0.09443   2.50328
   D36        2.68338   0.01065   0.00000   0.13495   0.13771   2.82109
   D37        0.59487   0.00874   0.00000   0.12420   0.12598   0.72086
   D38       -1.45073   0.00820   0.00000   0.12999   0.13214  -1.31860
   D39        0.02844   0.00108   0.00000   0.00649   0.00528   0.03372
   D40        3.12190   0.00290   0.00000   0.02994   0.02858  -3.13271
   D41       -3.08867  -0.00143   0.00000  -0.01514  -0.01545  -3.10412
   D42        0.00479   0.00039   0.00000   0.00831   0.00785   0.01263
   D43       -0.31113   0.00729   0.00000   0.06400   0.06233  -0.24880
   D44        1.78191   0.00355   0.00000   0.04967   0.04920   1.83110
   D45       -2.44572  -0.00077   0.00000   0.03113   0.03032  -2.41540
   D46        2.87724   0.00540   0.00000   0.04077   0.03945   2.91669
   D47       -1.31291   0.00167   0.00000   0.02643   0.02632  -1.28658
   D48        0.74266  -0.00266   0.00000   0.00789   0.00744   0.75010
   D49        3.12078  -0.00066   0.00000  -0.00066  -0.00095   3.11983
   D50        1.02252   0.00288   0.00000   0.03202   0.03150   1.05403
   D51       -1.07386   0.00180   0.00000   0.02172   0.02147  -1.05239
   D52       -0.98414  -0.00169   0.00000  -0.00330  -0.00291  -0.98704
   D53       -3.08239   0.00185   0.00000   0.02938   0.02954  -3.05285
   D54        1.10441   0.00078   0.00000   0.01908   0.01951   1.12392
   D55        1.07080  -0.00053   0.00000   0.00526   0.00535   1.07614
   D56       -1.02746   0.00301   0.00000   0.03794   0.03780  -0.98966
   D57       -3.12384   0.00193   0.00000   0.02765   0.02776  -3.09607
   D58        2.04352  -0.00105   0.00000  -0.00733  -0.00704   2.03648
   D59       -0.07603   0.00227   0.00000   0.02118   0.02101  -0.05502
   D60       -2.12171  -0.00033   0.00000   0.00208   0.00197  -2.11974
   D61       -0.43472   0.00053   0.00000   0.00952   0.00952  -0.42521
   D62        1.61087   0.00163   0.00000   0.02861   0.02861   1.63948
         Item               Value     Threshold  Converged?
 Maximum Force            0.061110     0.002500     NO 
 RMS     Force            0.009408     0.001667     NO 
 Maximum Displacement     0.235386     0.010000     NO 
 RMS     Displacement     0.055815     0.006667     NO 
 Predicted change in Energy=-2.881916D-02
 GradGradGradGradGradGradGradGradGradGradGradGradGradGradGradGradGradGrad

                          Input orientation:                          
 ---------------------------------------------------------------------
 Center     Atomic      Atomic             Coordinates (Angstroms)
 Number     Number       Type             X           Y           Z
 ---------------------------------------------------------------------
      1          6           0       -8.688059    1.814365    3.288790
      2          6           0       -8.676220    0.682186    2.464714
      3          6           0       -7.516894    2.494607    3.542612
      4          1           0       -9.616127    2.161250    3.722385
      5          6           0       -7.492611    0.234292    1.902585
      6          1           0       -9.599740    0.155310    2.260736
      7          6           0       -6.295150    0.905940    2.156304
      8          1           0       -7.493512   -0.638311    1.261846
      9          6           0       -6.304474    2.046554    2.987742
     10          1           0       -7.527804    3.376635    4.170379
     11          6           0       -5.091860    2.783903    3.215416
     12          6           0       -5.046369    0.455651    1.568584
     13          6           0       -3.892260    1.052683    1.887664
     14          1           0       -5.070738   -0.372537    0.872377
     15          6           0       -3.765439    2.169977    2.872819
     16          1           0       -2.965824    0.714474    1.437075
     17          1           0       -5.092800    3.367392    4.136672
     18          1           0       -3.330861    1.785677    3.806036
     19          6           0       -2.776607    3.229174    2.314655
     20          1           0       -1.810810    2.772387    2.091128
     21          1           0       -2.625074    3.992553    3.084787
     22          1           0       -3.161519    3.698329    1.399724
     23          8           0       -2.238334    4.680944    3.854486
     24          8           0       -1.116313    4.636230    4.755463
     25          1           0       -0.457811    5.113884    4.236902
 ---------------------------------------------------------------------
                    Distance matrix (angstroms):
                    1          2          3          4          5
     1  C    0.000000
     2  C    1.400383   0.000000
     3  C    1.377963   2.406402   0.000000
     4  H    1.081500   2.157033   2.133125   0.000000
     5  C    2.418118   1.384748   2.792723   3.396198   0.000000
     6  H    2.154187   1.082633   3.384341   2.482032   2.138809
     7  C    2.798888   2.411364   2.436877   3.880374   1.396208
     8  H    3.398687   2.142289   3.875257   4.289207   1.082582
     9  C    2.413714   2.785720   1.406624   3.394097   2.423537
    10  H    2.136370   3.389426   1.082674   2.457428   3.875364
    11  C    3.725324   4.222369   2.464049   4.594965   3.740006
    12  C    4.250544   3.745688   3.762662   5.332036   2.478842
    13  C    5.054008   4.832858   4.237448   6.112100   3.692223
    14  H    4.868943   4.080132   4.618912   5.933227   2.700933
    15  C    4.952947   5.147411   3.824582   5.912055   4.310457
    16  H    6.114130   5.802215   5.321127   7.179299   4.575924
    17  H    4.007079   4.779819   2.644030   4.699670   4.535037
    18  H    5.382187   5.620471   4.253803   6.297032   4.832193
    19  C    6.155964   6.427682   4.951544   7.064078   5.601769
    20  H    7.046188   7.186262   5.894350   7.997341   6.225781
    21  H    6.445611   6.925271   5.136472   7.254999   6.262191
    22  H    6.136818   6.375205   5.001020   7.029888   5.568732
    23  O    7.080695   7.705057   5.721934   7.797316   7.154723
    24  O    8.212514   8.833696   6.857477   8.912890   8.256703
    25  H    8.917552   9.503833   7.561303   9.636261   8.874000
                    6          7          8          9         10
     6  H    0.000000
     7  C    3.390378   0.000000
     8  H    2.462482   2.149613   0.000000
     9  C    3.868348   1.411516   3.406029   0.000000
    10  H    4.279788   3.417641   4.957876   2.159694   0.000000
    11  C    5.304894   2.469083   4.614750   1.437342   2.682742
    12  C    4.615459   1.451767   2.698026   2.475442   4.632386
    13  C    5.789627   2.422309   4.027421   2.831383   4.881466
    14  H    4.766342   2.186814   2.468229   3.442220   5.565094
    15  C    6.202628   2.917297   4.937635   2.544630   4.158735
    16  H    6.708198   3.411504   4.728709   3.914792   5.947244
    17  H    5.843725   3.380274   5.483950   2.129039   2.435254
    18  H    6.659196   3.504649   5.447594   3.095164   4.503134
    19  C    7.483762   4.219317   6.189914   3.781201   5.102874
    20  H    8.218595   4.857693   6.679347   4.639372   6.113299
    21  H    8.003090   4.884538   6.962018   4.163450   5.059112
    22  H    7.398987   4.264914   6.131200   3.889515   5.181163
    23  O    8.787019   5.795881   7.914111   4.921865   5.457060
    24  O    9.913165   6.891375   8.983029   6.062035   6.560191
    25  H   10.586197   7.490675   9.562416   6.719553   7.280608
                   11         12         13         14         15
    11  C    0.000000
    12  C    2.852172   0.000000
    13  C    2.489796   1.337994   0.000000
    14  H    3.931080   1.082217   2.109709   0.000000
    15  C    1.501224   2.506138   1.494977   3.488546   0.000000
    16  H    3.459055   2.100703   1.084297   2.435394   2.195275
    17  H    1.090493   3.882715   3.443430   4.964190   2.189296
    18  H    2.108650   3.117392   2.128990   4.036263   1.098835
    19  C    2.523892   3.660720   2.482763   4.507275   1.552814
    20  H    3.468349   4.013623   2.707622   4.690740   2.189638
    21  H    2.750078   4.546561   3.417849   5.470835   2.160357
    22  H    2.803413   3.754482   2.787742   4.527158   2.206940
    23  O    3.485654   5.564487   4.446137   6.515609   3.098496
    24  O    4.648422   6.563443   5.363950   7.470180   4.079782
    25  H    5.286460   7.062148   5.814440   7.918330   4.633327
                   16         17         18         19         20
    16  H    0.000000
    17  H    4.341639   0.000000
    18  H    2.625396   2.390726   0.000000
    19  C    2.670143   2.950187   2.148278   0.000000
    20  H    2.448846   3.912767   2.495008   1.091505   0.000000
    21  H    3.684679   2.754444   2.426651   1.094903   1.771776
    22  H    2.990498   3.366044   3.078515   1.097891   1.777590
    23  O    4.701702   3.154841   3.094921   2.183679   2.633400
    24  O    5.460088   4.219632   3.732464   3.270157   3.324894
    25  H    5.786533   4.954130   4.417808   3.553024   3.452182
                   21         22         23         24         25
    21  H    0.000000
    22  H    1.792702   0.000000
    23  O    1.102673   2.800654   0.000000
    24  O    2.341333   4.040237   1.439684   0.000000
    25  H    2.698478   4.166943   1.871882   0.964720   0.000000
 Stoichiometry    C11H12O2
 Framework group  C1[X(C11H12O2)]
 Deg. of freedom    69
 Full point group                 C1      NOp   1
 Largest Abelian subgroup         C1      NOp   1
 Largest concise Abelian subgroup C1      NOp   1
                         Standard orientation:                         
 ---------------------------------------------------------------------
 Center     Atomic      Atomic             Coordinates (Angstroms)
 Number     Number       Type             X           Y           Z
 ---------------------------------------------------------------------
      1          6           0       -3.236054   -1.663710    0.033925
      2          6           0       -3.892914   -0.428888   -0.035515
      3          6           0       -1.859289   -1.711403    0.065965
      4          1           0       -3.806816   -2.581662    0.069102
      5          6           0       -3.169162    0.750947   -0.076755
      6          1           0       -4.974892   -0.395015   -0.051947
      7          6           0       -1.773456    0.720991   -0.054304
      8          1           0       -3.685164    1.701454   -0.124314
      9          6           0       -1.109215   -0.522576    0.014284
     10          1           0       -1.351604   -2.665433    0.131273
     11          6           0        0.325033   -0.571473    0.094875
     12          6           0       -0.998695    1.948275   -0.088156
     13          6           0        0.336957    1.905735   -0.154891
     14          1           0       -1.524842    2.893614   -0.061753
     15          6           0        1.136867    0.645724   -0.241325
     16          1           0        0.907194    2.827830   -0.171379
     17          1           0        0.757905   -1.510500   -0.251568
     18          1           0        1.508225    0.519271   -1.267747
     19          6           0        2.381362    0.770308    0.678971
     20          1           0        2.972696    1.646892    0.408218
     21          1           0        3.001936   -0.120125    0.534650
     22          1           0        2.095377    0.854345    1.735623
     23          8           0        3.792885   -0.853409    0.305343
     24          8           0        4.912258   -0.858400   -0.600014
     25          1           0        5.610251   -0.539786   -0.015227
 ---------------------------------------------------------------------
 Rotational constants (GHZ):           1.8409781           0.3686219           0.3145378
 Standard basis: 6-311+G(2df,2p) (5D, 7F)
 There are   615 symmetry adapted cartesian basis functions of A   symmetry.
 There are   550 symmetry adapted basis functions of A   symmetry.
   550 basis functions,   808 primitive gaussians,   615 cartesian basis functions
    47 alpha electrons       47 beta electrons
       nuclear repulsion energy       724.7178215260 Hartrees.
 NAtoms=   25 NActive=   25 NUniq=   25 SFac= 1.00D+00 NAtFMM=   60 NAOKFM=F Big=F
 Integral buffers will be    131072 words long.
 Raffenetti 2 integral format.
 Two-electron integral symmetry is turned on.
 One-electron integrals computed using PRISM.
 NBasis=   550 RedAO= T EigKep=  1.89D-06  NBF=   550
 NBsUse=   548 1.00D-06 EigRej=  7.47D-07 NBFU=   548
 Initial guess from the checkpoint file:  "/scratch/dinius.ab/QMscratch/Gau-30056.chk"
 B after Tr=    -0.000000   -0.000000    0.000000
         Rot=    1.000000   -0.000892   -0.000129    0.000374 Ang=  -0.11 deg.
 ExpMin= 4.38D-02 ExpMax= 8.59D+03 ExpMxC= 1.30D+03 IAcc=2 IRadAn=         4 AccDes= 0.00D+00
 Harris functional with IExCor= 1009 and IRadAn=       4 diagonalized for initial guess.
 HarFok:  IExCor= 1009 AccDes= 0.00D+00 IRadAn=         4 IDoV= 1 UseB2=F ITyADJ=14
 ICtDFT=  3500011 ScaDFX=  1.000000  1.000000  1.000000  1.000000
 FoFCou: FMM=F IPFlag=           0 FMFlag=      100000 FMFlg1=           0
         NFxFlg=           0 DoJE=T BraDBF=F KetDBF=T FulRan=T
         wScrn=  0.000000 ICntrl=       500 IOpCl=  0 I1Cent=   200000004 NGrid=           0
         NMat0=    1 NMatS0=      1 NMatT0=    0 NMatD0=    1 NMtDS0=    0 NMtDT0=    0
 Petite list used in FoFCou.
 Requested convergence on RMS density matrix=1.00D-08 within 128 cycles.
 Requested convergence on MAX density matrix=1.00D-06.
 Requested convergence on             energy=1.00D-06.
 No special actions if energy rises.
 SCF Done:  E(RM062X) =  -576.467903637     A.U. after   17 cycles
            NFock= 17  Conv=0.28D-08     -V/T= 2.0033
 Calling FoFJK, ICntrl=      2127 FMM=F ISym2X=0 I1Cent= 0 IOpClX= 0 NMat=1 NMatS=1 NMatT=0.
 ***** Axes restored to original set *****
 -------------------------------------------------------------------
 Center     Atomic                   Forces (Hartrees/Bohr)
 Number     Number              X              Y              Z
 -------------------------------------------------------------------
      1        6           0.006800958    0.011224361    0.006700005
      2        6           0.005796997   -0.008055374   -0.007007981
      3        6          -0.020683172   -0.002698256    0.003396313
      4        1           0.000811394   -0.000744852   -0.000375519
      5        6          -0.011352659    0.000004381    0.003267277
      6        1           0.000701194    0.000513373    0.000333681
      7        6           0.013512987   -0.015968418   -0.017062213
      8        1           0.000773002    0.000862669    0.000347243
      9        6           0.034756283    0.034568023   -0.002124591
     10        1           0.001469813   -0.000695048   -0.000612359
     11        6          -0.010365126   -0.059922706    0.024508548
     12        6          -0.019263949    0.007014220    0.002775534
     13        6           0.014943048    0.006269170    0.005700670
     14        1          -0.000764054    0.000517313    0.000318815
     15        6          -0.022988001    0.007152536   -0.007381464
     16        1          -0.001065856   -0.001133773    0.002062007
     17        1           0.000136141    0.015806499   -0.012284867
[...]
   A34        2.09801   0.00069   0.01691   0.07890   0.01923   2.11723
   A35        1.66826  -0.00218  -0.00640  -0.05355  -0.00872   1.65954
   A36        2.05774   0.00009   0.01679   0.04934   0.01712   2.07486
   A37        1.82601  -0.00199  -0.05244  -0.11453  -0.06518   1.76083
   A38        2.00775   0.00103   0.02450   0.03170   0.02152   2.02926
   A39        1.67683   0.00068  -0.04697  -0.14686  -0.05779   1.61903
   A40        3.14159   0.00841   0.00000   0.00051   0.00000   3.14159
   A41        1.73984  -0.00149  -0.00027  -0.04024  -0.00574   1.73410
   A42        1.78925   0.00039   0.00353   0.00227   0.00354   1.79279
    D1        0.00073  -0.00007   0.00106   0.00028   0.00055   0.00128
    D2       -3.13842   0.00002   0.00288   0.00237   0.00257  -3.13584
    D3       -3.13813  -0.00012   0.00186   0.00132   0.00199  -3.13614
    D4        0.00591  -0.00004   0.00368   0.00341   0.00401   0.00992
    D5        0.00950  -0.00019   0.00130  -0.00488   0.00105   0.01055
    D6       -3.14139  -0.00007  -0.00009   0.00305   0.00064  -3.14074
    D7       -3.13486  -0.00013   0.00049  -0.00593  -0.00040  -3.13526
    D8       -0.00255  -0.00002  -0.00090   0.00201  -0.00081  -0.00337
    D9       -0.00650   0.00009  -0.00338  -0.00056  -0.00286  -0.00936
   D10        3.13974   0.00016   0.00275   0.00403   0.00274  -3.14071
   D11        3.13262   0.00001  -0.00521  -0.00268  -0.00489   3.12772
   D12       -0.00433   0.00008   0.00091   0.00192   0.00070  -0.00363
   D13       -0.01338   0.00037  -0.00123   0.00947  -0.00027  -0.01365
   D14       -3.09753   0.00003   0.00363   0.02202   0.00663  -3.09091
   D15        3.13723   0.00026   0.00012   0.00178   0.00013   3.13736
   D16        0.05308  -0.00008   0.00498   0.01432   0.00703   0.06010
   D17        0.00210   0.00012   0.00331   0.00533   0.00351   0.00561
   D18        3.08033   0.00041  -0.00570  -0.00993  -0.00710   3.07324
   D19        3.13916   0.00005  -0.00266   0.00087  -0.00193   3.13723
   D20       -0.06578   0.00035  -0.01167  -0.01439  -0.01253  -0.07832
   D21        0.00754  -0.00034  -0.00101  -0.00949  -0.00191   0.00563
   D22        3.09192   0.00011  -0.00604  -0.02239  -0.00898   3.08295
   D23       -3.07225  -0.00067   0.00779   0.00554   0.00850  -3.06375
   D24        0.01213  -0.00022   0.00275  -0.00736   0.00143   0.01356
   D25        3.09750   0.00051  -0.01962  -0.01715  -0.02058   3.07692
   D26       -0.05133  -0.00008  -0.00363  -0.01892  -0.00460  -0.05593
   D27       -0.10803   0.00077  -0.02873  -0.03268  -0.03126  -0.13929
   D28        3.02633   0.00018  -0.01273  -0.03445  -0.01528   3.01105
   D29       -3.09715  -0.00055  -0.00017  -0.00676  -0.00191  -3.09906
   D30        0.06722  -0.00130   0.01599   0.02007   0.01786   0.08508
   D31        0.10398  -0.00105   0.00513   0.00670   0.00563   0.10962
   D32       -3.01483  -0.00180   0.02129   0.03353   0.02540  -2.98943
   D33       -0.12006   0.00144   0.01278   0.03040   0.01647  -0.10360
   D34       -2.75075  -0.00112   0.01482  -0.04615   0.01212  -2.73863
   D35        1.28424  -0.00479  -0.01250  -0.17478  -0.02695   1.25729
   D36        2.99920   0.00219  -0.00305   0.00404  -0.00288   2.99632
   D37        0.36851  -0.00037  -0.00101  -0.07251  -0.00723   0.36128
   D38       -1.87968  -0.00404  -0.02834  -0.20114  -0.04630  -1.92598
   D39        0.08710  -0.00012   0.04637   0.06999   0.05252   0.13962
   D40        2.90745  -0.00080  -0.03263  -0.08182  -0.04190   2.86555
   D41       -3.04739   0.00046   0.03050   0.07165   0.03690  -3.01049
   D42       -0.22704  -0.00022  -0.04851  -0.08016  -0.05752  -0.28455
   D43        0.02604  -0.00100  -0.03744  -0.06708  -0.04383  -0.01778
   D44        2.64550   0.00070  -0.03272   0.00637  -0.03234   2.61317
   D45       -1.86998   0.00209  -0.03151  -0.02741  -0.03738  -1.90735
   D46       -2.79117  -0.00064   0.04412   0.09036   0.05481  -2.73636
   D47       -0.17171   0.00106   0.04885   0.16381   0.06630  -0.10541
   D48        1.59599   0.00245   0.05006   0.13003   0.06126   1.65725
   D49        3.11298  -0.00249  -0.05244  -0.17843  -0.06787   3.04510
   D50        1.18415   0.00111   0.00904  -0.03104   0.01044   1.19459
   D51       -0.55960   0.00152   0.06296   0.15774   0.07884  -0.48076
   D52       -1.22025  -0.00311  -0.06239  -0.23461  -0.08412  -1.30437
   D53        3.13411   0.00049  -0.00090  -0.08722  -0.00580   3.12830
   D54        1.39036   0.00090   0.05302   0.10156   0.06259   1.45295
   D55        0.79314  -0.00345  -0.07964  -0.26957  -0.10547   0.68767
   D56       -1.13569   0.00015  -0.01816  -0.12217  -0.02716  -1.16284
   D57       -2.87943   0.00056   0.03576   0.06661   0.04124  -2.83819
   D58       -0.02533  -0.00026  -0.20538   0.00092  -0.20000  -0.22533
   D59       -2.17604   0.00039  -0.20511  -0.03062  -0.20050  -2.37655
   D60        2.04979  -0.00044  -0.19804   0.01682  -0.19251   1.85728
   D61        1.04609  -0.00032   0.20377   0.03932   0.20122   1.24731
   D62        1.95747   0.00028  -0.00635   0.00945  -0.00557   1.95190
         Item               Value     Threshold  Converged?
 Maximum Force            0.016159     0.002500     NO 
 RMS     Force            0.002240     0.001667     NO 
 Maximum Displacement     0.073995     0.010000     NO 
 RMS     Displacement     0.016568     0.006667     NO 
 Predicted change in Energy=-9.987506D-04
 GradGradGradGradGradGradGradGradGradGradGradGradGradGradGradGradGradGrad

                          Input orientation:                          
 ---------------------------------------------------------------------
 Center     Atomic      Atomic             Coordinates (Angstroms)
 Number     Number       Type             X           Y           Z
 ---------------------------------------------------------------------
      1          6           0       -8.479307    1.996381    3.259653
      2          6           0       -8.450730    1.106709    2.120893
      3          6           0       -7.342216    2.418616    3.841970
      4          1           0       -9.437078    2.320601    3.646609
      5          6           0       -7.280398    0.679967    1.619163
      6          1           0       -9.383240    0.790691    1.673282
      7          6           0       -6.018260    1.102306    2.189999
      8          1           0       -7.254115    0.013495    0.764943
      9          6           0       -6.038061    2.009103    3.343479
     10          1           0       -7.369961    3.084237    4.694999
     11          6           0       -4.900350    2.384264    3.960145
     12          6           0       -4.837481    0.619107    1.743687
     13          6           0       -3.583023    1.100917    2.261237
     14          1           0       -4.808171   -0.142952    0.973627
     15          6           0       -3.597832    2.016460    3.428879
     16          1           0       -2.704515    0.510409    2.066274
     17          1           0       -4.937761    2.936010    4.888393
     18          1           0       -2.768076    1.995396    4.108269
     19          6           0       -3.170509    2.782238    2.108698
     20          1           0       -2.195330    2.653793    1.680643
     21          1           0       -3.056338    3.757625    2.594837
     22          1           0       -3.938071    3.144150    1.445788
     23          8           0       -2.941357    4.739932    3.084425
     24          8           0       -1.968537    4.403549    4.047423
     25          1           0       -1.192493    4.890548    3.744567
 ---------------------------------------------------------------------
                    Distance matrix (angstroms):
                    1          2          3          4          5
     1  C    0.000000
     2  C    1.445374   0.000000
     3  C    1.345493   2.431463   0.000000
     4  H    1.082672   2.185000   2.106233   0.000000
     5  C    2.421062   1.342952   2.822693   3.384300   0.000000
     6  H    2.188003   1.081572   3.393984   2.497507   2.106451
     7  C    2.828478   2.433456   2.492898   3.910789   1.448177
     8  H    3.414163   2.113198   3.906464   4.288596   1.083774
     9  C    2.442718   2.851316   1.454996   3.426694   2.506645
    10  H    2.115254   3.421213   1.082349   2.440335   3.905036
    11  C    3.667435   4.197642   2.444966   4.547995   3.748260
    12  C    4.178270   3.665462   3.730245   5.260465   2.446846
    13  C    5.076642   4.869734   4.285625   6.138147   3.776247
    14  H    4.824925   4.018222   4.605476   5.885636   2.684365
    15  C    4.884449   5.107748   3.788507   5.851213   4.315388
    16  H    6.081159   5.777331   5.320021   7.148543   4.600800
    17  H    4.009769   4.831807   2.672846   4.707931   4.611458
    18  H    5.773934   6.085392   4.601390   6.692868   5.318557
    19  C    5.488680   5.539700   4.532062   6.469016   4.642238
    20  H    6.512591   6.458895   5.587225   7.511255   5.455060
    21  H    5.740432   6.029216   4.660154   6.624584   5.316634
    22  H    5.022978   4.997102   4.225670   5.980044   4.156129
    23  O    6.182773   6.669476   5.032887   6.954395   6.120261
    24  O    6.986070   7.523264   5.732242   7.763918   6.926570
    25  H    7.855509   8.344805   6.628653   8.636401   7.701229
                    6          7          8          9         10
     6  H    0.000000
     7  C    3.418654   0.000000
     8  H    2.441779   2.177988   0.000000
     9  C    3.932468   1.467375   3.479955   0.000000
    10  H    4.294697   3.468454   4.988809   2.180935   0.000000
    11  C    5.278780   2.454904   4.622777   1.347371   2.670010
    12  C    4.549541   1.351634   2.676720   2.435737   4.604407
    13  C    5.838189   2.436279   4.110754   2.832536   4.919112
    14  H    4.721490   2.120034   2.459811   3.429310   5.552128
    15  C    6.168920   2.868618   4.947406   2.441734   4.119729
    16  H    6.696146   3.368465   4.758072   3.871675   5.941480
    17  H    5.890808   3.436754   5.559625   2.111061   2.444376
    18  H    7.151285   3.878281   5.935512   3.358258   4.765205
    19  C    6.538644   3.307335   5.113458   3.216407   4.941210
    20  H    7.425446   4.157084   5.779358   4.236417   6.004035
    21  H    7.048521   3.998449   5.915095   3.536731   4.844737
    22  H    5.936361   3.008349   4.610932   3.049511   4.726397
    23  O    7.686722   4.847645   6.805813   4.136921   4.994779
    24  O    8.582954   5.545131   7.614761   4.773880   5.597796
    25  H    9.390814   6.328941   8.331091   5.651826   6.505936
                   11         12         13         14         15
    11  C    0.000000
    12  C    2.834152   0.000000
    13  C    2.503721   1.440022   0.000000
    14  H    3.913388   1.083783   2.169363   0.000000
    15  C    1.453986   2.515789   1.483855   3.486580   0.000000
    16  H    3.452502   2.159958   1.076330   2.458887   2.218761
    17  H    1.080495   3.907336   3.479200   4.982188   2.184299
    18  H    2.172499   3.430431   2.208112   4.308190   1.072619
    19  C    2.564875   2.755206   1.737894   3.539358   1.584897
    20  H    3.547662   3.335398   2.161991   3.892119   2.330137
    21  H    2.674054   3.707724   2.728879   4.572935   2.005118
    22  H    2.797391   2.696948   2.228411   3.432936   2.306533
    23  O    3.186489   4.730124   3.785737   5.637643   2.822572
    24  O    3.560990   5.278261   4.087102   6.179192   2.955570
    25  H    4.480641   5.961097   4.719768   6.788767   3.761077
                   16         17         18         19         20
    16  H    0.000000
    17  H    4.339964   0.000000
    18  H    2.525663   2.490157   0.000000
    19  C    2.319517   3.297503   2.186174   0.000000
    20  H    2.236533   4.229685   2.579708   1.072709   0.000000
    21  H    3.308711   3.078182   2.340731   1.095785   1.671984
    22  H    2.973762   3.590854   3.126872   1.076839   1.825583
    23  O    4.356788   3.239455   2.934410   2.199346   2.622811
    24  O    4.429803   3.417190   2.538142   2.798578   2.952072
    25  H    4.928337   4.376710   3.316119   3.321685   3.204457
                   21         22         23         24         25
    21  H    0.000000
    22  H    1.572933   0.000000
    23  O    1.103560   2.495013   0.000000
    24  O    1.926275   3.497664   1.409574   0.000000
    25  H    2.465627   3.984030   1.875366   0.964954   0.000000
 Stoichiometry    C11H12O2
 Framework group  C1[X(C11H12O2)]
 Deg. of freedom    69
 Full point group                 C1      NOp   1
 Largest Abelian subgroup         C1      NOp   1
 Largest concise Abelian subgroup C1      NOp   1
                         Standard orientation:                         
 ---------------------------------------------------------------------
 Center     Atomic      Atomic             Coordinates (Angstroms)
 Number     Number       Type             X           Y           Z
 ---------------------------------------------------------------------
      1          6           0       -3.057531   -1.480549    0.098497
      2          6           0       -3.562468   -0.172653    0.449997
      3          6           0       -1.780215   -1.653041   -0.287587
      4          1           0       -3.726974   -2.330124    0.145894
      5          6           0       -2.761277    0.903791    0.396313
      6          1           0       -4.593141   -0.069931    0.761381
      7          6           0       -1.373350    0.789676   -0.000994
      8          1           0       -3.135322    1.886269    0.659740
      9          6           0       -0.851319   -0.535184   -0.355137
     10          1           0       -1.408002   -2.634820   -0.550357
     11          6           0        0.411475   -0.696298   -0.796502
     12          6           0       -0.578920    1.875121   -0.133678
     13          6           0        0.819809    1.749801   -0.452289
     14          1           0       -0.978888    2.872677    0.005936
     15          6           0        1.351941    0.412452   -0.813065
     16          1           0        1.332556    2.631071   -0.797168
     17          1           0        0.737463   -1.650368   -1.185027
     18          1           0        2.180545    0.355692   -1.491818
     19          6           0        1.875866    0.869869    0.611073
     20          1           0        2.637607    1.618551    0.710720
     21          1           0        2.455223   -0.041129    0.798620
     22          1           0        1.248644    0.710629    1.471780
     23          8           0        3.038690   -0.958591    0.987498
     24          8           0        3.901948   -0.914466   -0.125937
     25          1           0        4.761118   -0.741966    0.278051
 ---------------------------------------------------------------------
 Rotational constants (GHZ):           1.7047862           0.4849386           0.4109860
 Standard basis: 6-311+G(2df,2p) (5D, 7F)
 There are   615 symmetry adapted cartesian basis functions of A   symmetry.
 There are   550 symmetry adapted basis functions of A   symmetry.
   550 basis functions,   808 primitive gaussians,   615 cartesian basis functions
    47 alpha electrons       47 beta electrons
       nuclear repulsion energy       761.0703704034 Hartrees.
 NAtoms=   25 NActive=   25 NUniq=   25 SFac= 1.00D+00 NAtFMM=   60 NAOKFM=F Big=F
 Integral buffers will be    131072 words long.
 Raffenetti 2 integral format.
 Two-electron integral symmetry is turned on.
 One-electron integrals computed using PRISM.
 NBasis=   550 RedAO= T EigKep=  1.94D-06  NBF=   550
 NBsUse=   548 1.00D-06 EigRej=  6.79D-07 NBFU=   548
 Initial guess from the checkpoint file:  "/scratch/dinius.ab/QMscratch/Gau-30056.chk"
 B after Tr=     0.000000   -0.000000   -0.000000
         Rot=    0.999997    0.002080    0.000003    0.001184 Ang=   0.27 deg.
 ExpMin= 4.38D-02 ExpMax= 8.59D+03 ExpMxC= 1.30D+03 IAcc=2 IRadAn=         4 AccDes= 0.00D+00
 Harris functional with IExCor= 1009 and IRadAn=       4 diagonalized for initial guess.
 HarFok:  IExCor= 1009 AccDes= 0.00D+00 IRadAn=         4 IDoV= 1 UseB2=F ITyADJ=14
 ICtDFT=  3500011 ScaDFX=  1.000000  1.000000  1.000000  1.000000
 FoFCou: FMM=F IPFlag=           0 FMFlag=      100000 FMFlg1=           0
         NFxFlg=           0 DoJE=T BraDBF=F KetDBF=T FulRan=T
         wScrn=  0.000000 ICntrl=       500 IOpCl=  0 I1Cent=   200000004 NGrid=           0
         NMat0=    1 NMatS0=      1 NMatT0=    0 NMatD0=    1 NMtDS0=    0 NMtDT0=    0
 Petite list used in FoFCou.
 Requested convergence on RMS density matrix=1.00D-08 within 128 cycles.
 Requested convergence on MAX density matrix=1.00D-06.
 Requested convergence on             energy=1.00D-06.
 No special actions if energy rises.
 SCF Done:  E(RM062X) =  -576.528364604     A.U. after   13 cycles
            NFock= 13  Conv=0.75D-08     -V/T= 2.0032
 Calling FoFJK, ICntrl=      2127 FMM=F ISym2X=0 I1Cent= 0 IOpClX= 0 NMat=1 NMatS=1 NMatT=0.
 ***** Axes restored to original set *****
 -------------------------------------------------------------------
 Center     Atomic                   Forces (Hartrees/Bohr)
 Number     Number              X              Y              Z
 -------------------------------------------------------------------
      1        6          -0.000433732    0.000973440    0.001832040
      2        6          -0.001138299    0.000761710    0.000439853
      3        6           0.001155008   -0.000997201   -0.001275530
      4        1           0.000998321   -0.000229239   -0.000357887
      5        6           0.002496093   -0.000743211   -0.000511893
      6        1           0.000215968    0.000256409    0.000562847
      7        6          -0.006890097    0.001486689    0.002633549
      8        1           0.000406929    0.000344807    0.000817395
      9        6          -0.013854244   -0.000412738   -0.004084403
     10        1           0.000313884    0.000036352   -0.000239120
     11        6           0.005933182   -0.000752639    0.002935035
     12        6           0.011387264    0.002330162   -0.005505273
     13        6          -0.001746694    0.008352338    0.002691404
     14        1          -0.001257363    0.000737012    0.000865769
     15        6           0.008775185    0.005528524   -0.017194641
     16        1           0.001509821   -0.000030755    0.001161110
     17        1           0.000659953    0.001207227   -0.000085568
     18        1           0.002876153    0.000974058    0.004513495
     19        6          -0.030982924   -0.165326040   -0.066091767
     20        1           0.006279766    0.002686437    0.001753221
     21        1           0.010879530    0.098476052    0.059964110
     22        1          -0.004204335    0.000900553   -0.002190566
     23        8           0.001241732    0.045006767    0.012122946
     24        8           0.008191008   -0.000013083    0.003903715
     25        1          -0.002812107   -0.001553633    0.001340159
 -------------------------------------------------------------------
 Cartesian Forces:  Max     0.165326040 RMS     0.025672473

 GradGradGradGradGradGradGradGradGradGradGradGradGradGradGradGradGradGrad
 Berny optimization.
 Using GEDIIS/GDIIS optimizer.
 Bend failed for angle    19 -    21 -    23
 Tors failed for dihedral    15 -    19 -    21 -    23
 Tors failed for dihedral    20 -    19 -    21 -    23
 Tors failed for dihedral    22 -    19 -    21 -    23
 Tors failed for dihedral    19 -    21 -    23 -    24
 FormBX had a problem.
 Error termination via Lnk1e in /shared/centos7/gaussian/g16/l103.exe at Sat Jan 12 04:38:12 2019.
 Job cpu time:       0 days 12 hours  5 minutes 33.6 seconds.
 Elapsed time:       0 days 12 hours  6 minutes  7.1 seconds.
 File lengths (MBytes):  RWF=    416 Int=      0 D2E=      0 Chk=     48 Scr=     32
