 Entering Gaussian System, Link 0=g16
 Input=rxn907.com
 Output=rxn907.log
 Initial command:
 /shared/centos7/gaussian/g16/l1.exe "/scratch/dinius.ab/QMscratch/Gau-30999.inp" -scrdir="/scratch/dinius.ab/QMscratch/"
 Entering Link 1 = /shared/centos7/gaussian/g16/l1.exe PID=     31000.
  
 Copyright (c) 1988,1990,1992,1993,1995,1998,2003,2009,2016,
            Gaussian, Inc.  All Rights Reserved.
  
 This is part of the Gaussian(R) 16 program.  It is based on
 the Gaussian(R) 09 system (copyright 2009, Gaussian, Inc.),
 the Gaussian(R) 03 system (copyright 2003, Gaussian, Inc.),
 the Gaussian(R) 98 system (copyright 1998, Gaussian, Inc.),
 the Gaussian(R) 94 system (copyright 1995, Gaussian, Inc.),
 the Gaussian 92(TM) system (copyright 1992, Gaussian, Inc.),
 the Gaussian 90(TM) system (copyright 1990, Gaussian, Inc.),
 the Gaussian 88(TM) system (copyright 1988, Gaussian, Inc.),
 the Gaussian 86(TM) system (copyright 1986, Carnegie Mellon
 University), and the Gaussian 82(TM) system (copyright 1983,
 Carnegie Mellon University). Gaussian is a federally registered
 trademark of Gaussian, Inc.
  
 This software contains proprietary and confidential information,
 including trade secrets, belonging to Gaussian, Inc.
  
 This software is provided under written license and may be
 used, copied, transmitted, or stored only in accord with that
 written license.
  
 The following legend is applicable only to US Government
 contracts under FAR:
  
                    RESTRICTED RIGHTS LEGEND
  
 Use, reproduction and disclosure by the US Government is
 subject to restrictions as set forth in subparagraphs (a)
 and (c) of the Commercial Computer Software - Restricted
 Rights clause in FAR 52.227-19.
  
 Gaussian, Inc.
 340 Quinnipiac St., Bldg. 40, Wallingford CT 06492
  
  
 ---------------------------------------------------------------
 Warning -- This program may not be used in any manner that
 competes with the business of Gaussian, Inc. or will provide
 assistance to any competitor of Gaussian, Inc.  The licensee
 of this program is prohibited from giving any competitor of
 Gaussian, Inc. access to this program.  By using this program,
 the user acknowledges that Gaussian, Inc. is engaged in the
 business of creating and licensing software in the field of
 computational chemistry and represents and warrants to the
 licensee that it is not a competitor of Gaussian, Inc. and that
 it will not use this program in any manner prohibited above.
 ---------------------------------------------------------------
  

 Cite this work as:
 Gaussian 16, Revision A.03,
 M. J. Frisch, G. W. Trucks, H. B. Schlegel, G. E. Scuseria, 
 M. A. Robb, J. R. Cheeseman, G. Scalmani, V. Barone, 
 G. A. Petersson, H. Nakatsuji, X. Li, M. Caricato, A. V. Marenich, 
 J. Bloino, B. G. Janesko, R. Gomperts, B. Mennucci, H. P. Hratchian, 
 J. V. Ortiz, A. F. Izmaylov, J. L. Sonnenberg, D. Williams-Young, 
 F. Ding, F. Lipparini, F. Egidi, J. Goings, B. Peng, A. Petrone, 
 T. Henderson, D. Ranasinghe, V. G. Zakrzewski, J. Gao, N. Rega, 
 G. Zheng, W. Liang, M. Hada, M. Ehara, K. Toyota, R. Fukuda, 
 J. Hasegawa, M. Ishida, T. Nakajima, Y. Honda, O. Kitao, H. Nakai, 
 T. Vreven, K. Throssell, J. A. Montgomery, Jr., J. E. Peralta, 
 F. Ogliaro, M. J. Bearpark, J. J. Heyd, E. N. Brothers, K. N. Kudin, 
 V. N. Staroverov, T. A. Keith, R. Kobayashi, J. Normand, 
 K. Raghavachari, A. P. Rendell, J. C. Burant, S. S. Iyengar, 
 J. Tomasi, M. Cossi, J. M. Millam, M. Klene, C. Adamo, R. Cammi, 
 J. W. Ochterski, R. L. Martin, K. Morokuma, O. Farkas, 
 J. B. Foresman, and D. J. Fox, Gaussian, Inc., Wallingford CT, 2016.
 
 ******************************************
 Gaussian 16:  EM64L-G16RevA.03 25-Dec-2016
                 6-Nov-2018 
 ******************************************
 ----------------------------------------------------------------------
 #m062x/6-311+g(2df,2p) Opt=(ModRedun,Loose,maxcycle=1000) Int(Grid=SG1
 ) freq
 ----------------------------------------------------------------------
 1/6=1000,7=-1,18=120,19=15,26=2,38=1/1,3;
 2/9=110,12=2,17=6,18=5,40=1/2;
 3/5=4,6=6,7=214,11=2,25=1,30=1,71=1,74=-55,75=1/1,2,3;
 4//1;
 5/5=2,38=5/2;
 6/7=2,8=2,9=2,10=2,28=1/1;
 7//1,2,3,16;
 1/6=1000,7=-1,18=20,19=15,26=2/3(2);
 2/9=110/2;
 99//99;
 2/9=110/2;
 3/5=4,6=6,7=214,11=2,25=1,30=1,71=1,74=-55,75=1/1,2,3;
 4/5=5,16=3,69=1/1;
 5/5=2,38=5/2;
 7//1,2,3,16;
 1/6=1000,7=-1,18=20,19=15,26=2/3(-5);
 2/9=110/2;
 6/7=2,8=2,9=2,10=2,19=2,28=1/1;
 99/9=1/99;
 -----
 Title
 -----
 Symbolic Z-matrix:
 Charge =  0 Multiplicity = 1
 C                    -9.62134   1.44451   3.13881 
 C                    -9.8299    0.2696    2.42092 
 C                    -8.32409   1.88749   3.38617 
 H                    -10.47047   2.01482   3.50764 
 C                    -8.74135  -0.46186   1.94987 
 H                    -10.84213  -0.0784    2.23003 
 C                    -7.43807  -0.02181   2.1927 
 H                    -8.91602  -1.38009   1.39364 
 C                    -7.23121   1.15857   2.91551 
 H                    -8.16724   2.80528   3.94799 
 C                    -5.85332   1.63557   3.18648 
 C                    -6.3607   -0.77545   1.7237 
 C                    -5.03853  -0.38762   1.92997 
 H                    -6.55119  -1.70029   1.18378 
 C                    -4.64957   0.90478   2.63328 
 H                    -4.22948  -1.01028   1.55487 
 H                    -5.66717   2.54598   3.75196 
 H                    -3.99258   0.64845   3.46759 
 C                    -3.86883   1.82787   1.67486 
 H                    -2.97557   1.32152   1.30103 
 H                    -4.48538   2.11926   0.81667 
 H                    -3.54996   2.73519   2.194 
 O                    -5.16372   2.43475   0.00606 
 O                    -6.47223   3.10355   0.06624 
 H                    -7.04486   2.3178    0.14831 
 
 The following ModRedundant input section has been read:
 

 GradGradGradGradGradGradGradGradGradGradGradGradGradGradGradGradGradGrad
 Berny optimization.
 Initialization pass.
                           ----------------------------
                           !    Initial Parameters    !
                           ! (Angstroms and Degrees)  !
 --------------------------                            --------------------------
 ! Name  Definition              Value          Derivative Info.                !
 --------------------------------------------------------------------------------
 ! R1    R(1,2)                  1.3926         estimate D2E/DX2                !
 ! R2    R(1,3)                  1.3929         estimate D2E/DX2                !
 ! R3    R(1,4)                  1.0873         estimate D2E/DX2                !
 ! R4    R(2,5)                  1.3935         estimate D2E/DX2                !
 ! R5    R(2,6)                  1.0873         estimate D2E/DX2                !
 ! R6    R(3,9)                  1.3954         estimate D2E/DX2                !
 ! R7    R(3,10)                 1.0875         estimate D2E/DX2                !
 ! R8    R(5,7)                  1.3968         estimate D2E/DX2                !
 ! R9    R(5,8)                  1.0877         estimate D2E/DX2                !
 ! R10   R(7,9)                  1.3995         estimate D2E/DX2                !
 ! R11   R(7,12)                 1.3959         estimate D2E/DX2                !
 ! R12   R(9,11)                 1.4831         estimate D2E/DX2                !
 ! R13   R(11,15)                1.513          estimate D2E/DX2                !
 ! R14   R(11,17)                1.0878         estimate D2E/DX2                !
 ! R15   R(12,13)                1.3932         estimate D2E/DX2                !
 ! R16   R(12,14)                1.0877         estimate D2E/DX2                !
 ! R17   R(13,15)                1.5219         estimate D2E/DX2                !
 ! R18   R(13,16)                1.0876         estimate D2E/DX2                !
 ! R19   R(15,18)                1.0924         estimate D2E/DX2                !
 ! R20   R(15,19)                1.5428         estimate D2E/DX2                !
 ! R21   R(19,20)                1.0927         estimate D2E/DX2                !
 ! R22   R(19,21)                1.0961         estimate D2E/DX2                !
 ! R23   R(19,22)                1.0929         estimate D2E/DX2                !
 ! R24   R(21,23)                1.1031         estimate D2E/DX2                !
 ! R25   R(23,24)                1.4708         estimate D2E/DX2                !
 ! R26   R(24,25)                0.9757         estimate D2E/DX2                !
 ! A1    A(2,1,3)              119.9558         estimate D2E/DX2                !
 ! A2    A(2,1,4)              120.0281         estimate D2E/DX2                !
 ! A3    A(3,1,4)              120.0159         estimate D2E/DX2                !
 ! A4    A(1,2,5)              120.0085         estimate D2E/DX2                !
 ! A5    A(1,2,6)              119.9984         estimate D2E/DX2                !
 ! A6    A(5,2,6)              119.9929         estimate D2E/DX2                !
 ! A7    A(1,3,9)              120.223          estimate D2E/DX2                !
 ! A8    A(1,3,10)             119.6347         estimate D2E/DX2                !
 ! A9    A(9,3,10)             120.1423         estimate D2E/DX2                !
 ! A10   A(2,5,7)              120.3122         estimate D2E/DX2                !
 ! A11   A(2,5,8)              119.3768         estimate D2E/DX2                !
 ! A12   A(7,5,8)              120.3108         estimate D2E/DX2                !
 ! A13   A(5,7,9)              119.5651         estimate D2E/DX2                !
 ! A14   A(5,7,12)             119.4463         estimate D2E/DX2                !
 ! A15   A(9,7,12)             120.9842         estimate D2E/DX2                !
 ! A16   A(3,9,7)              119.9352         estimate D2E/DX2                !
 ! A17   A(3,9,11)             119.868          estimate D2E/DX2                !
 ! A18   A(7,9,11)             120.1965         estimate D2E/DX2                !
 ! A19   A(9,11,15)            121.1332         estimate D2E/DX2                !
 ! A20   A(9,11,17)            121.5441         estimate D2E/DX2                !
 ! A21   A(15,11,17)           117.2696         estimate D2E/DX2                !
 ! A22   A(7,12,13)            122.1674         estimate D2E/DX2                !
 ! A23   A(7,12,14)            119.3829         estimate D2E/DX2                !
 ! A24   A(13,12,14)           118.4486         estimate D2E/DX2                !
 ! A25   A(12,13,15)           123.1849         estimate D2E/DX2                !
 ! A26   A(12,13,16)           119.7024         estimate D2E/DX2                !
 ! A27   A(15,13,16)           117.0916         estimate D2E/DX2                !
 ! A28   A(11,15,13)           112.0739         estimate D2E/DX2                !
 ! A29   A(11,15,18)           108.2146         estimate D2E/DX2                !
 ! A30   A(11,15,19)           109.9238         estimate D2E/DX2                !
 ! A31   A(13,15,18)           107.9011         estimate D2E/DX2                !
 ! A32   A(13,15,19)           110.5084         estimate D2E/DX2                !
 ! A33   A(18,15,19)           108.0886         estimate D2E/DX2                !
 ! A34   A(15,19,20)           110.4233         estimate D2E/DX2                !
 ! A35   A(15,19,21)           111.148          estimate D2E/DX2                !
 ! A36   A(15,19,22)           110.4438         estimate D2E/DX2                !
 ! A37   A(20,19,21)           108.3691         estimate D2E/DX2                !
 ! A38   A(20,19,22)           107.9808         estimate D2E/DX2                !
 ! A39   A(21,19,22)           108.3798         estimate D2E/DX2                !
 ! A40   A(21,23,24)           130.3239         estimate D2E/DX2                !
 ! A41   A(23,24,25)            99.171          estimate D2E/DX2                !
 ! A42   L(19,21,23,1,-1)      176.2215         estimate D2E/DX2                !
 ! A43   L(19,21,23,1,-2)      178.0432         estimate D2E/DX2                !
 ! D1    D(3,1,2,5)             -0.0328         estimate D2E/DX2                !
 ! D2    D(3,1,2,6)            179.8152         estimate D2E/DX2                !
 ! D3    D(4,1,2,5)           -179.9196         estimate D2E/DX2                !
 ! D4    D(4,1,2,6)             -0.0716         estimate D2E/DX2                !
 ! D5    D(2,1,3,9)              0.0769         estimate D2E/DX2                !
 ! D6    D(2,1,3,10)          -179.9526         estimate D2E/DX2                !
 ! D7    D(4,1,3,9)            179.9637         estimate D2E/DX2                !
 ! D8    D(4,1,3,10)            -0.0658         estimate D2E/DX2                !
 ! D9    D(1,2,5,7)             -0.0728         estimate D2E/DX2                !
 ! D10   D(1,2,5,8)            179.7635         estimate D2E/DX2                !
 ! D11   D(6,2,5,7)           -179.9208         estimate D2E/DX2                !
 ! D12   D(6,2,5,8)             -0.0846         estimate D2E/DX2                !
 ! D13   D(1,3,9,7)             -0.0155         estimate D2E/DX2                !
 ! D14   D(1,3,9,11)          -179.8392         estimate D2E/DX2                !
 ! D15   D(10,3,9,7)          -179.9859         estimate D2E/DX2                !
 ! D16   D(10,3,9,11)            0.1904         estimate D2E/DX2                !
 ! D17   D(2,5,7,9)              0.1335         estimate D2E/DX2                !
 ! D18   D(2,5,7,12)           179.3806         estimate D2E/DX2                !
 ! D19   D(8,5,7,9)           -179.7012         estimate D2E/DX2                !
 ! D20   D(8,5,7,12)            -0.4542         estimate D2E/DX2                !
 ! D21   D(5,7,9,3)             -0.0892         estimate D2E/DX2                !
 ! D22   D(5,7,9,11)           179.7339         estimate D2E/DX2                !
 ! D23   D(12,7,9,3)          -179.3244         estimate D2E/DX2                !
 ! D24   D(12,7,9,11)            0.4987         estimate D2E/DX2                !
 ! D25   D(5,7,12,13)          179.7934         estimate D2E/DX2                !
 ! D26   D(5,7,12,14)           -0.5879         estimate D2E/DX2                !
 ! D27   D(9,7,12,13)           -0.9705         estimate D2E/DX2                !
 ! D28   D(9,7,12,14)          178.6481         estimate D2E/DX2                !
 ! D29   D(3,9,11,15)         -177.0116         estimate D2E/DX2                !
 ! D30   D(3,9,11,17)            0.2665         estimate D2E/DX2                !
 ! D31   D(7,9,11,15)            3.1652         estimate D2E/DX2                !
 ! D32   D(7,9,11,17)         -179.5567         estimate D2E/DX2                !
 ! D33   D(9,11,15,13)          -5.7            estimate D2E/DX2                !
 ! D34   D(9,11,15,18)        -124.5573         estimate D2E/DX2                !
 ! D35   D(9,11,15,19)         117.6063         estimate D2E/DX2                !
 ! D36   D(17,11,15,13)        176.9097         estimate D2E/DX2                !
 ! D37   D(17,11,15,18)         58.0524         estimate D2E/DX2                !
 ! D38   D(17,11,15,19)        -59.784          estimate D2E/DX2                !
 ! D39   D(7,12,13,15)          -2.2866         estimate D2E/DX2                !
 ! D40   D(7,12,13,16)         179.4335         estimate D2E/DX2                !
 ! D41   D(14,12,13,15)        178.0913         estimate D2E/DX2                !
 ! D42   D(14,12,13,16)         -0.1886         estimate D2E/DX2                !
 ! D43   D(12,13,15,11)          5.3844         estimate D2E/DX2                !
 ! D44   D(12,13,15,18)        124.4265         estimate D2E/DX2                !
 ! D45   D(12,13,15,19)       -117.5921         estimate D2E/DX2                !
 ! D46   D(16,13,15,11)       -176.2938         estimate D2E/DX2                !
 ! D47   D(16,13,15,18)        -57.2518         estimate D2E/DX2                !
 ! D48   D(16,13,15,19)         60.7297         estimate D2E/DX2                !
 ! D49   D(11,15,19,20)        177.7652         estimate D2E/DX2                !
 ! D50   D(11,15,19,21)        -61.9301         estimate D2E/DX2                !
 ! D51   D(11,15,19,22)         58.4017         estimate D2E/DX2                !
 ! D52   D(13,15,19,20)        -58.0158         estimate D2E/DX2                !
 ! D53   D(13,15,19,21)         62.2889         estimate D2E/DX2                !
 ! D54   D(13,15,19,22)       -177.3794         estimate D2E/DX2                !
 ! D55   D(18,15,19,20)         59.8507         estimate D2E/DX2                !
 ! D56   D(18,15,19,21)       -179.8446         estimate D2E/DX2                !
 ! D57   D(18,15,19,22)        -59.5128         estimate D2E/DX2                !
 ! D58   D(15,19,23,24)         56.0156         estimate D2E/DX2                !
 ! D59   D(20,19,23,24)        178.0451         estimate D2E/DX2                !
 ! D60   D(22,19,23,24)        -64.2643         estimate D2E/DX2                !
 ! D61   D(21,23,24,25)        -87.3827         estimate D2E/DX2                !
 --------------------------------------------------------------------------------
 Trust Radius=3.00D-01 FncErr=1.00D-05 GrdErr=1.00D-04 EigMax=2.50D+02 EigMin=1.00D-04
 Number of steps in this run=    150 maximum allowed number of steps=    150.
 GradGradGradGradGradGradGradGradGradGradGradGradGradGradGradGradGradGrad

                          Input orientation:                          
 ---------------------------------------------------------------------
 Center     Atomic      Atomic             Coordinates (Angstroms)
 Number     Number       Type             X           Y           Z
 ---------------------------------------------------------------------
      1          6           0       -9.621340    1.444510    3.138810
      2          6           0       -9.829900    0.269600    2.420920
      3          6           0       -8.324090    1.887490    3.386170
      4          1           0      -10.470470    2.014820    3.507640
      5          6           0       -8.741350   -0.461860    1.949870
      6          1           0      -10.842130   -0.078400    2.230030
      7          6           0       -7.438070   -0.021810    2.192700
      8          1           0       -8.916020   -1.380090    1.393640
      9          6           0       -7.231210    1.158570    2.915510
     10          1           0       -8.167240    2.805280    3.947990
     11          6           0       -5.853320    1.635570    3.186480
     12          6           0       -6.360700   -0.775450    1.723700
     13          6           0       -5.038530   -0.387620    1.929970
     14          1           0       -6.551190   -1.700290    1.183780
     15          6           0       -4.649570    0.904780    2.633280
     16          1           0       -4.229480   -1.010280    1.554870
     17          1           0       -5.667170    2.545980    3.751960
     18          1           0       -3.992580    0.648450    3.467590
     19          6           0       -3.868830    1.827870    1.674860
     20          1           0       -2.975570    1.321520    1.301030
     21          1           0       -4.485380    2.119260    0.816670
     22          1           0       -3.549960    2.735190    2.194000
     23          8           0       -5.163720    2.434750    0.006060
     24          8           0       -6.472230    3.103550    0.066240
     25          1           0       -7.044860    2.317800    0.148310
 ---------------------------------------------------------------------
                    Distance matrix (angstroms):
                    1          2          3          4          5
     1  C    0.000000
     2  C    1.392579   0.000000
     3  C    1.392938   2.411792   0.000000
     4  H    1.087341   2.153389   2.153582   0.000000
     5  C    2.412925   1.393507   2.785051   3.398595   0.000000
     6  H    2.153013   1.087268   3.397338   2.480320   2.153789
     7  C    2.794975   2.420301   2.419675   3.882316   1.396835
     8  H    3.394328   2.147547   3.872678   4.290772   1.087680
     9  C    2.417508   2.790713   1.395433   3.402438   2.416356
    10  H    2.149622   3.395004   1.087466   2.474592   3.872504
    11  C    3.773162   4.273774   2.491595   4.643818   3.777451
    12  C    4.190767   3.689660   3.702696   5.278092   2.411843
    13  C    5.081352   4.861090   4.253416   6.145464   3.703618
    14  H    4.810169   4.020065   4.567917   5.879041   2.630096
    15  C    5.026467   5.223444   3.877455   5.989956   4.367770
    16  H    6.132456   5.809719   5.340090   7.205172   4.562210
    17  H    4.150259   4.927666   2.761636   4.838751   4.663176
    18  H    5.694273   5.942504   4.505977   6.620546   5.107551
    19  C    5.948234   6.206381   4.772995   6.853881   5.390728
    20  H    6.896290   7.024424   5.768431   7.843680   6.070062
    21  H    5.676769   5.878669   4.625121   6.563043   5.104861
    22  H    6.278549   6.750428   4.993214   7.080822   6.101742
    23  O    5.537605   5.682663   4.659675   6.371734   4.996817
    24  O    4.702127   4.984951   3.991256   5.386510   4.626999
    25  H    4.042768   4.137188   3.507896   4.807463   3.721587
                    6          7          8          9         10
     6  H    0.000000
     7  C    3.404735   0.000000
     8  H    2.470596   2.160499   0.000000
     9  C    3.877979   1.399479   3.405799   0.000000
    10  H    4.292090   3.406636   4.960111   2.157272   0.000000
    11  C    5.361037   2.499188   4.657103   1.483083   2.702285
    12  C    4.563492   1.395944   2.646543   2.432824   4.586140
    13  C    5.819573   2.441441   4.038264   2.858293   4.904675
    14  H    4.705033   2.149830   2.395619   3.410923   5.527444
    15  C    6.283077   2.971264   4.995992   2.609392   4.208844
    16  H    6.712033   3.417448   4.703872   3.945331   5.982598
    17  H    5.998654   3.487252   5.615223   2.251838   2.521114
    18  H    6.998300   3.734434   5.714587   3.324716   4.723398
    19  C    7.250448   4.053264   5.987004   3.645926   4.959716
    20  H    8.043978   4.744841   6.526578   4.554511   6.013433
    21  H    6.872814   3.898207   5.675290   3.587149   4.881791
    22  H    7.816222   4.766388   6.809604   4.069141   4.939703
    23  O    6.595931   3.998593   5.527942   3.790521   4.969631
    24  O    5.822613   3.901609   5.276090   3.532327   4.246176
    25  H    4.949201   3.131760   4.327410   3.005983   3.991859
                   11         12         13         14         15
    11  C    0.000000
    12  C    2.865341   0.000000
    13  C    2.517141   1.393231   0.000000
    14  H    3.952947   1.087717   2.137298   0.000000
    15  C    1.512977   2.564854   1.521917   3.536043   0.000000
    16  H    3.507069   2.150755   1.087643   2.450339   2.237610
    17  H    1.087780   3.953065   3.510106   5.040620   2.231702
    18  H    2.125037   3.267512   2.128786   4.156784   1.092435
    19  C    2.502034   3.604036   2.518268   4.459162   1.542796
    20  H    3.454706   4.004377   2.751823   4.682963   2.179642
    21  H    2.778707   3.566353   2.798189   4.357901   2.191345
    22  H    2.738549   4.521729   3.469509   5.449900   2.180025
    23  O    3.351016   3.832549   3.418022   4.517815   3.083414
    24  O    3.503414   4.219746   4.209187   4.932749   3.840101
    25  H    3.334019   3.538096   3.810377   4.178631   3.729493
                   16         17         18         19         20
    16  H    0.000000
    17  H    4.420536   0.000000
    18  H    2.542834   2.546711   0.000000
    19  C    2.863488   2.839728   2.149471   0.000000
    20  H    2.659702   3.840712   2.486225   1.092727   0.000000
    21  H    3.225592   3.192905   3.071402   1.096144   1.774970
    22  H    3.859894   2.635454   2.484437   1.092892   1.767988
    23  O    3.890996   3.781217   4.067509   2.197712   2.775649
    24  O    4.916253   3.813599   4.872921   3.315525   4.114240
    25  H    4.580490   3.864762   4.808405   3.557745   4.345165
                   21         22         23         24         25
    21  H    0.000000
    22  H    1.775223   0.000000
    23  O    1.103072   2.735245   0.000000
    24  O    2.340843   3.633554   1.470753   0.000000
    25  H    2.652746   4.071043   1.890132   0.975727   0.000000
 Stoichiometry    C11H12O2
 Framework group  C1[X(C11H12O2)]
 Deg. of freedom    69
 Full point group                 C1      NOp   1
 Largest Abelian subgroup         C1      NOp   1
 Largest concise Abelian subgroup C1      NOp   1
                         Standard orientation:                         
 ---------------------------------------------------------------------
 Center     Atomic      Atomic             Coordinates (Angstroms)
 Number     Number       Type             X           Y           Z
 ---------------------------------------------------------------------
      1          6           0       -2.944009    0.883882    0.610383
      2          6           0       -3.197994    0.094107   -0.508109
      3          6           0       -1.704535    0.816613    1.242406
      4          1           0       -3.713292    1.551288    0.991283
      5          6           0       -2.212383   -0.762315   -0.994910
      6          1           0       -4.166264    0.143846   -1.000177
      7          6           0       -0.966657   -0.832747   -0.366934
      8          1           0       -2.423134   -1.377404   -1.866861
      9          6           0       -0.714427   -0.038944    0.757699
     10          1           0       -1.512087    1.435100    2.115917
     11          6           0        0.601219   -0.106940    1.438865
     12          6           0        0.003000   -1.706451   -0.861977
     13          6           0        1.265027   -1.819213   -0.282610
     14          1           0       -0.228588   -2.327491   -1.724419
     15          6           0        1.717650   -0.973779    0.899171
     16          1           0        1.987009   -2.519967   -0.695710
     17          1           0        0.818330    0.494845    2.318629
     18          1           0        2.038236   -1.651552    1.693691
     19          6           0        2.922289   -0.094311    0.504709
     20          1           0        3.748417   -0.715777    0.150668
     21          1           0        2.653990    0.609895   -0.291306
     22          1           0        3.275630    0.477784    1.366261
     23          8           0        2.319982    1.340813   -1.046929
     24          8           0        1.231051    2.328293   -0.999755
     25          1           0        0.498422    1.767157   -1.316653
 ---------------------------------------------------------------------
 Rotational constants (GHZ):           1.2248403           0.5996561           0.5313191
 Standard basis: 6-311+G(2df,2p) (5D, 7F)
 There are   615 symmetry adapted cartesian basis functions of A   symmetry.
 There are   550 symmetry adapted basis functions of A   symmetry.
   550 basis functions,   808 primitive gaussians,   615 cartesian basis functions
    47 alpha electrons       47 beta electrons
       nuclear repulsion energy       763.0922529070 Hartrees.
 NAtoms=   25 NActive=   25 NUniq=   25 SFac= 1.00D+00 NAtFMM=   60 NAOKFM=F Big=F
 Integral buffers will be    131072 words long.
 Raffenetti 2 integral format.
 Two-electron integral symmetry is turned on.
 One-electron integrals computed using PRISM.
 NBasis=   550 RedAO= T EigKep=  2.06D-06  NBF=   550
 NBsUse=   548 1.00D-06 EigRej=  7.22D-07 NBFU=   548
 ExpMin= 4.38D-02 ExpMax= 8.59D+03 ExpMxC= 1.30D+03 IAcc=2 IRadAn=         4 AccDes= 0.00D+00
 Harris functional with IExCor= 1009 and IRadAn=       4 diagonalized for initial guess.
 HarFok:  IExCor= 1009 AccDes= 0.00D+00 IRadAn=         4 IDoV= 1 UseB2=F ITyADJ=14
 ICtDFT=  3500011 ScaDFX=  1.000000  1.000000  1.000000  1.000000
 FoFCou: FMM=F IPFlag=           0 FMFlag=      100000 FMFlg1=           0
         NFxFlg=           0 DoJE=T BraDBF=F KetDBF=T FulRan=T
         wScrn=  0.000000 ICntrl=       500 IOpCl=  0 I1Cent=   200000004 NGrid=           0
         NMat0=    1 NMatS0=      1 NMatT0=    0 NMatD0=    1 NMtDS0=    0 NMtDT0=    0
 Petite list used in FoFCou.
 Requested convergence on RMS density matrix=1.00D-08 within 128 cycles.
 Requested convergence on MAX density matrix=1.00D-06.
 Requested convergence on             energy=1.00D-06.
 No special actions if energy rises.
 SCF Done:  E(RM062X) =  -576.471410088     A.U. after   20 cycles
            NFock= 20  Conv=0.62D-08     -V/T= 2.0038

 **********************************************************************

            Population analysis using the SCF density.

 **********************************************************************

 Orbital symmetries:
       Occupied  (A) (A) (A) (A) (A) (A) (A) (A) (A) (A) (A) (A)
                 (A) (A) (A) (A) (A) (A) (A) (A) (A) (A) (A) (A)
                 (A) (A) (A) (A) (A) (A) (A) (A) (A) (A) (A) (A)
                 (A) (A) (A) (A) (A) (A) (A) (A) (A) (A) (A)
       Virtual   (A) (A) (A) (A) (A) (A) (A) (A) (A) (A) (A) (A)
                 (A) (A) (A) (A) (A) (A) (A) (A) (A) (A) (A) (A)
                 (A) (A) (A) (A) (A) (A) (A) (A) (A) (A) (A) (A)
                 (A) (A) (A) (A) (A) (A) (A) (A) (A) (A) (A) (A)
                 (A) (A) (A) (A) (A) (A) (A) (A) (A) (A) (A) (A)
                 (A) (A) (A) (A) (A) (A) (A) (A) (A) (A) (A) (A)
                 (A) (A) (A) (A) (A) (A) (A) (A) (A) (A) (A) (A)
                 (A) (A) (A) (A) (A) (A) (A) (A) (A) (A) (A) (A)
                 (A) (A) (A) (A) (A) (A) (A) (A) (A) (A) (A) (A)
                 (A) (A) (A) (A) (A) (A) (A) (A) (A) (A) (A) (A)
                 (A) (A) (A) (A) (A) (A) (A) (A) (A) (A) (A) (A)
                 (A) (A) (A) (A) (A) (A) (A) (A) (A) (A) (A) (A)
                 (A) (A) (A) (A) (A) (A) (A) (A) (A) (A) (A) (A)
                 (A) (A) (A) (A) (A) (A) (A) (A) (A) (A) (A) (A)
                 (A) (A) (A) (A) (A) (A) (A) (A) (A) (A) (A) (A)
                 (A) (A) (A) (A) (A) (A) (A) (A) (A) (A) (A) (A)
                 (A) (A) (A) (A) (A) (A) (A) (A) (A) (A) (A) (A)
                 (A) (A) (A) (A) (A) (A) (A) (A) (A) (A) (A) (A)
                 (A) (A) (A) (A) (A) (A) (A) (A) (A) (A) (A) (A)
                 (A) (A) (A) (A) (A) (A) (A) (A) (A) (A) (A) (A)
                 (A) (A) (A) (A) (A) (A) (A) (A) (A) (A) (A) (A)
                 (A) (A) (A) (A) (A) (A) (A) (A) (A) (A) (A) (A)
                 (A) (A) (A) (A) (A) (A) (A) (A) (A) (A) (A) (A)
                 (A) (A) (A) (A) (A) (A) (A) (A) (A) (A) (A) (A)
                 (A) (A) (A) (A) (A) (A) (A) (A) (A) (A) (A) (A)
                 (A) (A) (A) (A) (A) (A) (A) (A) (A) (A) (A) (A)
                 (A) (A) (A) (A) (A) (A) (A) (A) (A) (A) (A) (A)
                 (A) (A) (A) (A) (A) (A) (A) (A) (A) (A) (A) (A)
                 (A) (A) (A) (A) (A) (A) (A) (A) (A) (A) (A) (A)
                 (A) (A) (A) (A) (A) (A) (A) (A) (A) (A) (A) (A)
                 (A) (A) (A) (A) (A) (A) (A) (A) (A) (A) (A) (A)
                 (A) (A) (A) (A) (A) (A) (A) (A) (A) (A) (A) (A)
                 (A) (A) (A) (A) (A) (A) (A) (A) (A) (A) (A) (A)
                 (A) (A) (A) (A) (A) (A) (A) (A) (A) (A) (A) (A)
                 (A) (A) (A) (A) (A) (A) (A) (A) (A) (A) (A) (A)
                 (A) (A) (A) (A) (A) (A) (A) (A) (A) (A) (A) (A)
                 (A) (A) (A) (A) (A) (A) (A) (A) (A) (A) (A) (A)
                 (A) (A) (A) (A) (A) (A) (A) (A) (A) (A) (A) (A)
                 (A) (A) (A) (A) (A) (A) (A) (A) (A) (A) (A) (A)
                 (A) (A) (A) (A) (A) (A) (A) (A) (A) (A) (A) (A)
                 (A) (A) (A) (A) (A) (A) (A) (A) (A) (A) (A) (A)
                 (A) (A) (A) (A) (A) (A) (A) (A) (A)
 The electronic state is 1-A.
 Alpha  occ. eigenvalues --  -19.63047 -19.58852 -10.61693 -10.59085 -10.58854
 Alpha  occ. eigenvalues --  -10.58547 -10.58261 -10.57978 -10.57939 -10.57325
 Alpha  occ. eigenvalues --  -10.57259 -10.56931 -10.50677  -1.15656  -1.01488
 Alpha  occ. eigenvalues --   -0.95655  -0.93776  -0.90629  -0.88093  -0.83990
 Alpha  occ. eigenvalues --   -0.77750  -0.73418  -0.71654  -0.70655  -0.62322
 Alpha  occ. eigenvalues --   -0.61422  -0.59116  -0.56259  -0.55137  -0.53733
 Alpha  occ. eigenvalues --   -0.52156  -0.51176  -0.50606  -0.49983  -0.48124
 Alpha  occ. eigenvalues --   -0.47469  -0.45769  -0.44038  -0.42677  -0.41488
 Alpha  occ. eigenvalues --   -0.40993  -0.38873  -0.36532  -0.34255  -0.30984
 Alpha  occ. eigenvalues --   -0.29959  -0.21180
 Alpha virt. eigenvalues --   -0.11818  -0.03550  -0.00215   0.00301   0.00843
 Alpha virt. eigenvalues --    0.00968   0.02824   0.02896   0.03911   0.04588
 Alpha virt. eigenvalues --    0.04994   0.05184   0.05288   0.06319   0.06719
 Alpha virt. eigenvalues --    0.08652   0.08907   0.09250   0.09711   0.09814
 Alpha virt. eigenvalues --    0.10193   0.11319   0.12159   0.12241   0.12919
 Alpha virt. eigenvalues --    0.13287   0.13875   0.14550   0.14918   0.15826
 Alpha virt. eigenvalues --    0.16298   0.17156   0.17306   0.17634   0.17817
 Alpha virt. eigenvalues --    0.18187   0.18504   0.18702   0.19976   0.20176
 Alpha virt. eigenvalues --    0.20519   0.20844   0.20897   0.21559   0.22014
 Alpha virt. eigenvalues --    0.22785   0.23009   0.23412   0.24130   0.24488
 Alpha virt. eigenvalues --    0.24814   0.25306   0.25728   0.25932   0.26453
 Alpha virt. eigenvalues --    0.26612   0.27195   0.27873   0.28175   0.28728
 Alpha virt. eigenvalues --    0.29383   0.29487   0.30372   0.31152   0.31724
 Alpha virt. eigenvalues --    0.33204   0.33696   0.33800   0.34465   0.35557
 Alpha virt. eigenvalues --    0.36124   0.37841   0.38898   0.42390   0.44066
 Alpha virt. eigenvalues --    0.44721   0.45475   0.46376   0.47354   0.48036
 Alpha virt. eigenvalues --    0.49123   0.49556   0.50936   0.51792   0.52154
 Alpha virt. eigenvalues --    0.52809   0.53788   0.54463   0.54680   0.55269
 Alpha virt. eigenvalues --    0.55916   0.56067   0.56319   0.57304   0.57668
 Alpha virt. eigenvalues --    0.58277   0.59192   0.60664   0.61749   0.62283
 Alpha virt. eigenvalues --    0.63215   0.63906   0.64172   0.64527   0.65065
 Alpha virt. eigenvalues --    0.65592   0.65965   0.66556   0.66913   0.67433
 Alpha virt. eigenvalues --    0.68426   0.69267   0.69576   0.70056   0.70448
 Alpha virt. eigenvalues --    0.70865   0.71126   0.71958   0.72560   0.73808
 Alpha virt. eigenvalues --    0.74286   0.74625   0.74692   0.76025   0.78414
 Alpha virt. eigenvalues --    0.78751   0.79313   0.80536   0.80753   0.81852
 Alpha virt. eigenvalues --    0.82402   0.83401   0.84455   0.85370   0.86209
 Alpha virt. eigenvalues --    0.87911   0.89420   0.90006   0.90430   0.91567
 Alpha virt. eigenvalues --    0.93628   0.95376   0.96484   0.96802   0.98444
 Alpha virt. eigenvalues --    0.99299   1.00208   1.00585   1.01163   1.02186
 Alpha virt. eigenvalues --    1.03576   1.04360   1.05559   1.07586   1.07903
 Alpha virt. eigenvalues --    1.10077   1.10717   1.10817   1.11174   1.12679
 Alpha virt. eigenvalues --    1.13925   1.15530   1.16473   1.17039   1.17481
 Alpha virt. eigenvalues --    1.17868   1.20302   1.21430   1.22568   1.22969
 Alpha virt. eigenvalues --    1.23541   1.24978   1.26833   1.27746   1.27994
 Alpha virt. eigenvalues --    1.28412   1.29188   1.29594   1.31201   1.31254
 Alpha virt. eigenvalues --    1.32755   1.33100   1.33427   1.34408   1.34913
 Alpha virt. eigenvalues --    1.35216   1.36397   1.37103   1.37540   1.38427
 Alpha virt. eigenvalues --    1.38869   1.40222   1.41154   1.41497   1.43089
 Alpha virt. eigenvalues --    1.43910   1.44182   1.45676   1.47075   1.47335
 Alpha virt. eigenvalues --    1.47847   1.48256   1.49286   1.49742   1.50821
 Alpha virt. eigenvalues --    1.55361   1.57262   1.57959   1.59507   1.61185
 Alpha virt. eigenvalues --    1.63948   1.65097   1.66693   1.66817   1.68468
 Alpha virt. eigenvalues --    1.69341   1.69518   1.71028   1.73095   1.73304
 Alpha virt. eigenvalues --    1.73784   1.74549   1.75739   1.77346   1.79059
 Alpha virt. eigenvalues --    1.81189   1.86678   1.88074   1.90748   1.92910
 Alpha virt. eigenvalues --    1.96014   1.98342   1.99521   2.00840   2.02619
 Alpha virt. eigenvalues --    2.07196   2.09329   2.19254   2.22583   2.27884
 Alpha virt. eigenvalues --    2.33698   2.34143   2.37586   2.44164   2.47637
 Alpha virt. eigenvalues --    2.50752   2.52419   2.53553   2.54625   2.59055
 Alpha virt. eigenvalues --    2.60295   2.61524   2.64108   2.65209   2.65657
 Alpha virt. eigenvalues --    2.66981   2.68386   2.70282   2.71179   2.72164
 Alpha virt. eigenvalues --    2.73199   2.73776   2.74807   2.76524   2.77461
 Alpha virt. eigenvalues --    2.77718   2.78516   2.79413   2.79928   2.80992
 Alpha virt. eigenvalues --    2.81330   2.82506   2.82990   2.83597   2.84617
 Alpha virt. eigenvalues --    2.85457   2.85521   2.86423   2.86811   2.87299
 Alpha virt. eigenvalues --    2.88143   2.88829   2.89840   2.91352   2.92955
 Alpha virt. eigenvalues --    2.93910   2.96688   2.97465   2.97840   2.99986
 Alpha virt. eigenvalues --    3.00430   3.05242   3.05620   3.07107   3.08326
 Alpha virt. eigenvalues --    3.09438   3.10122   3.11297   3.12585   3.13628
 Alpha virt. eigenvalues --    3.14018   3.14809   3.15804   3.16607   3.17631
 Alpha virt. eigenvalues --    3.18256   3.18894   3.19505   3.19609   3.20591
 Alpha virt. eigenvalues --    3.21098   3.23265   3.24851   3.25782   3.26713
 Alpha virt. eigenvalues --    3.27215   3.30246   3.31075   3.31607   3.33162
 Alpha virt. eigenvalues --    3.34700   3.36502   3.36743   3.37351   3.38665
 Alpha virt. eigenvalues --    3.39232   3.39571   3.42031   3.42898   3.43831
 Alpha virt. eigenvalues --    3.44153   3.44913   3.45939   3.47721   3.48725
 Alpha virt. eigenvalues --    3.50020   3.50100   3.51237   3.52443   3.53014
 Alpha virt. eigenvalues --    3.54481   3.56030   3.57201   3.60684   3.61535
 Alpha virt. eigenvalues --    3.62789   3.64385   3.65596   3.67936   3.69289
 Alpha virt. eigenvalues --    3.70098   3.70562   3.71430   3.72323   3.72994
 Alpha virt. eigenvalues --    3.73505   3.75316   3.75989   3.77138   3.79653
 Alpha virt. eigenvalues --    3.80267   3.81929   3.83649   3.85166   3.85603
 Alpha virt. eigenvalues --    3.87208   3.88020   3.89162   3.90359   3.91915
 Alpha virt. eigenvalues --    3.92231   3.94600   3.96593   3.97197   3.97667
 Alpha virt. eigenvalues --    3.99789   4.01615   4.02390   4.05107   4.06365
 Alpha virt. eigenvalues --    4.07088   4.08714   4.10736   4.11172   4.11382
 Alpha virt. eigenvalues --    4.13254   4.15982   4.17813   4.19517   4.20417
 Alpha virt. eigenvalues --    4.21059   4.21713   4.23245   4.24038   4.26615
 Alpha virt. eigenvalues --    4.27786   4.28877   4.29820   4.31251   4.32110
 Alpha virt. eigenvalues --    4.32443   4.32818   4.35108   4.35676   4.36995
 Alpha virt. eigenvalues --    4.38482   4.40858   4.41203   4.41922   4.43620
 Alpha virt. eigenvalues --    4.43983   4.45308   4.46168   4.47590   4.48349
 Alpha virt. eigenvalues --    4.50550   4.51642   4.52627   4.56215   4.56766
 Alpha virt. eigenvalues --    4.58619   4.61297   4.62710   4.64740   4.65723
 Alpha virt. eigenvalues --    4.68533   4.69808   4.70123   4.73858   4.74973
 Alpha virt. eigenvalues --    4.78342   4.85099   4.85463   4.91201   4.93152
 Alpha virt. eigenvalues --    4.93770   4.95392   4.98325   5.04963   5.05775
 Alpha virt. eigenvalues --    5.07922   5.09071   5.12520   5.15803   5.18706
 Alpha virt. eigenvalues --    5.20466   5.20839   5.22103   5.23630   5.26570
 Alpha virt. eigenvalues --    5.28923   5.31582   5.35229   5.39030   5.41182
 Alpha virt. eigenvalues --    5.44398   5.46313   5.50585   5.53606   5.55664
 Alpha virt. eigenvalues --    5.57719   5.58017   5.59521   5.67592   5.68804
 Alpha virt. eigenvalues --    5.69562   5.75006   5.76241   5.81747   5.87275
 Alpha virt. eigenvalues --    5.92913   6.06085   6.08088   6.20729   6.48574
 Alpha virt. eigenvalues --    6.68285   6.88697   6.89432   6.95701   7.04484
 Alpha virt. eigenvalues --    7.11432   7.14844   7.27766   7.34070   7.47381
 Alpha virt. eigenvalues --    7.67145   7.81923   8.11703  23.92776  24.22423
 Alpha virt. eigenvalues --   24.38026  24.41217  24.52525  24.54912  24.58581
 Alpha virt. eigenvalues --   24.69585  24.76024  24.93652  25.19156  50.06921
 Alpha virt. eigenvalues --   50.12076
          Condensed to atoms (all electrons):
               1          2          3          4          5          6
     1  C    6.370677  -0.004754   0.298939   0.354131  -0.241571   0.012400
     2  C   -0.004754   6.605345  -0.409570   0.015667   0.002582   0.367213
     3  C    0.298939  -0.409570   7.134146  -0.031960   0.976355   0.011610
     4  H    0.354131   0.015667  -0.031960   0.477731   0.012000  -0.006395
     5  C   -0.241571   0.002582   0.976355   0.012000   7.414546  -0.032005
     6  H    0.012400   0.367213   0.011610  -0.006395  -0.032005   0.472655
     7  C   -0.151440   0.417933  -0.633629  -0.024472  -2.483173   0.027309
     8  H   -0.003204   0.003442  -0.007407  -0.000091   0.407022  -0.006217
     9  C    0.068975   0.138880  -2.447399   0.045718  -0.896101  -0.012676
    10  H    0.039794  -0.001247   0.417761  -0.006341  -0.005798  -0.000084
    11  C   -0.548839   0.149225   0.516775   0.006811   0.688780   0.003813
    12  C    0.251436  -0.722093   0.483042   0.002069   0.781480   0.003184
    13  C    0.195032  -0.429894   0.261966  -0.000995  -0.495072   0.000104
    14  H   -0.000048   0.013776   0.003844  -0.000002   0.036569  -0.000016
    15  C   -0.279751   0.128048  -0.370184   0.000721  -0.029267  -0.000529
    16  H   -0.000783   0.001035   0.002177   0.000000   0.007706  -0.000001
    17  H    0.020022  -0.000456   0.065413  -0.000009   0.004491  -0.000002
    18  H   -0.000199  -0.000938  -0.008053  -0.000001  -0.004922   0.000000
    19  C   -0.007495   0.034617  -0.035337   0.000021   0.009215  -0.000022
    20  H    0.000383  -0.000201   0.000733   0.000000  -0.000884  -0.000000
    21  H   -0.000850   0.000131   0.001970  -0.000000   0.004012   0.000000
    22  H   -0.000124   0.000127  -0.002807  -0.000000  -0.000871  -0.000000
    23  O    0.000551  -0.007330  -0.029746  -0.000002  -0.029644   0.000001
    24  O   -0.010198   0.005004  -0.009323   0.000008   0.010998   0.000006
    25  H    0.009693   0.003745  -0.000843  -0.000030   0.001111  -0.000012
               7          8          9         10         11         12
     1  C   -0.151440  -0.003204   0.068975   0.039794  -0.548839   0.251436
     2  C    0.417933   0.003442   0.138880  -0.001247   0.149225  -0.722093
     3  C   -0.633629  -0.007407  -2.447399   0.417761   0.516775   0.483042
     4  H   -0.024472  -0.000091   0.045718  -0.006341   0.006811   0.002069
     5  C   -2.483173   0.407022  -0.896101  -0.005798   0.688780   0.781480
     6  H    0.027309  -0.006217  -0.012676  -0.000084   0.003813   0.003184
     7  C   17.967024  -0.031806  -6.841973  -0.054630  -0.295069  -2.578424
     8  H   -0.031806   0.473945  -0.064287   0.000034   0.002439   0.040717
     9  C   -6.841973  -0.064287  19.142118  -0.088598  -3.519583  -0.521636
    10  H   -0.054630   0.000034  -0.088598   0.471584   0.049155   0.005483
    11  C   -0.295069   0.002439  -3.519583   0.049155   8.782093   1.190809
    12  C   -2.578424   0.040717  -0.521636   0.005483   1.190809   7.703052
    13  C    0.150334   0.019280   0.004255  -0.001673  -0.795963  -0.082378
    14  H   -0.024916   0.002724  -0.058936   0.000013  -0.013554   0.371107
    15  C    0.264405   0.000501   0.299898   0.008610  -0.129157  -0.762401
    16  H    0.029105  -0.000021  -0.017054  -0.000002   0.022676   0.013905
    17  H   -0.061872   0.000008  -0.017018   0.002778   0.371337  -0.005306
    18  H    0.003861  -0.000001  -0.004228  -0.000008  -0.051753  -0.017434
    19  C    0.036224  -0.000151   0.131410  -0.000837  -0.207246   0.141290
    20  H   -0.011761   0.000000  -0.007364   0.000003   0.065158   0.019123
    21  H    0.017085  -0.000004  -0.004259  -0.000011  -0.033429  -0.010296
    22  H    0.009414   0.000000   0.033277   0.000000  -0.070380  -0.016297
    23  O    0.051173   0.000031  -0.043309   0.000150   0.106714  -0.098940
    24  O   -0.017461  -0.000005   0.102517  -0.000369  -0.095555   0.005002
    25  H   -0.021477  -0.000036   0.017690   0.000037   0.007911   0.011076
              13         14         15         16         17         18
     1  C    0.195032  -0.000048  -0.279751  -0.000783   0.020022  -0.000199
     2  C   -0.429894   0.013776   0.128048   0.001035  -0.000456  -0.000938
     3  C    0.261966   0.003844  -0.370184   0.002177   0.065413  -0.008053
     4  H   -0.000995  -0.000002   0.000721   0.000000  -0.000009  -0.000001
     5  C   -0.495072   0.036569  -0.029267   0.007706   0.004491  -0.004922
     6  H    0.000104  -0.000016  -0.000529  -0.000001  -0.000002   0.000000
     7  C    0.150334  -0.024916   0.264405   0.029105  -0.061872   0.003861
     8  H    0.019280   0.002724   0.000501  -0.000021   0.000008  -0.000001
     9  C    0.004255  -0.058936   0.299898  -0.017054  -0.017018  -0.004228
    10  H   -0.001673   0.000013   0.008610  -0.000002   0.002778  -0.000008
    11  C   -0.795963  -0.013554  -0.129157   0.022676   0.371337  -0.051753
    12  C   -0.082378   0.371107  -0.762401   0.013905  -0.005306  -0.017434
    13  C    7.615599   0.026304  -0.277471   0.342702   0.005606  -0.009720
    14  H    0.026304   0.476839   0.008605  -0.006335   0.000021  -0.000187
    15  C   -0.277471   0.008605   7.064576  -0.030428  -0.027655   0.502297
    16  H    0.342702  -0.006335  -0.030428   0.461229  -0.000043  -0.003905
    17  H    0.005606   0.000021  -0.027655  -0.000043   0.442614  -0.004841
    18  H   -0.009720  -0.000187   0.502297  -0.003905  -0.004841   0.439565
    19  C   -0.253594  -0.000310  -0.517435   0.006967   0.011474  -0.053840
    20  H   -0.040156  -0.000028  -0.016182   0.001975  -0.000138  -0.004854
    21  H    0.039647  -0.000038  -0.066109  -0.000870   0.000275   0.002137
    22  H    0.035049   0.000013   0.019432  -0.000206   0.001249  -0.003221
    23  O    0.050345   0.000107   0.283873  -0.000943  -0.002830   0.000410
    24  O   -0.022194  -0.000107  -0.015685  -0.000017   0.000344   0.000052
    25  H   -0.016454   0.000070  -0.011830   0.000059   0.000364  -0.000060
              19         20         21         22         23         24
     1  C   -0.007495   0.000383  -0.000850  -0.000124   0.000551  -0.010198
     2  C    0.034617  -0.000201   0.000131   0.000127  -0.007330   0.005004
     3  C   -0.035337   0.000733   0.001970  -0.002807  -0.029746  -0.009323
     4  H    0.000021   0.000000  -0.000000  -0.000000  -0.000002   0.000008
     5  C    0.009215  -0.000884   0.004012  -0.000871  -0.029644   0.010998
     6  H   -0.000022  -0.000000   0.000000  -0.000000   0.000001   0.000006
     7  C    0.036224  -0.011761   0.017085   0.009414   0.051173  -0.017461
     8  H   -0.000151   0.000000  -0.000004   0.000000   0.000031  -0.000005
     9  C    0.131410  -0.007364  -0.004259   0.033277  -0.043309   0.102517
    10  H   -0.000837   0.000003  -0.000011   0.000000   0.000150  -0.000369
    11  C   -0.207246   0.065158  -0.033429  -0.070380   0.106714  -0.095555
    12  C    0.141290   0.019123  -0.010296  -0.016297  -0.098940   0.005002
    13  C   -0.253594  -0.040156   0.039647   0.035049   0.050345  -0.022194
    14  H   -0.000310  -0.000028  -0.000038   0.000013   0.000107  -0.000107
    15  C   -0.517435  -0.016182  -0.066109   0.019432   0.283873  -0.015685
    16  H    0.006967   0.001975  -0.000870  -0.000206  -0.000943  -0.000017
    17  H    0.011474  -0.000138   0.000275   0.001249  -0.002830   0.000344
    18  H   -0.053840  -0.004854   0.002137  -0.003221   0.000410   0.000052
    19  C    6.861005   0.355668   0.242948   0.354727  -0.411660   0.132976
    20  H    0.355668   0.521096  -0.032776  -0.023072   0.022139  -0.003594
    21  H    0.242948  -0.032776   0.301436  -0.007216  -0.059273   0.011944
    22  H    0.354727  -0.023072  -0.007216   0.518560  -0.001872   0.000523
    23  O   -0.411660   0.022139  -0.059273  -0.001872   8.726126  -0.027794
    24  O    0.132976  -0.003594   0.011944   0.000523  -0.027794   7.923807
    25  H    0.006984   0.000044  -0.001250  -0.000154  -0.045972   0.257698
              25
     1  C    0.009693
     2  C    0.003745
     3  C   -0.000843
     4  H   -0.000030
     5  C    0.001111
     6  H   -0.000012
     7  C   -0.021477
     8  H   -0.000036
     9  C    0.017690
    10  H    0.000037
    11  C    0.007911
    12  C    0.011076
    13  C   -0.016454
    14  H    0.000070
    15  C   -0.011830
    16  H    0.000059
    17  H    0.000364
    18  H   -0.000060
    19  C    0.006984
    20  H    0.000044
    21  H   -0.001250
    22  H   -0.000154
    23  O   -0.045972
    24  O    0.257698
    25  H    0.538978
 Mulliken charges:
               1
     1  C   -0.372779
     2  C   -0.310286
     3  C   -0.188472
     4  H    0.155422
     5  C   -0.137558
     6  H    0.159663
     7  C    0.258236
     8  H    0.163089
     9  C    0.559680
    10  H    0.164197
    11  C   -0.203165
    12  C   -0.207572
    13  C   -0.320657
    14  H    0.164486
    15  C   -0.046882
    16  H    0.171072
    17  H    0.194172
    18  H    0.219844
    19  C   -0.837598
    20  H    0.154689
    21  H    0.594795
    22  H    0.153847
    23  O   -0.482306
    24  O   -0.248576
    25  H    0.242659
 Sum of Mulliken charges =  -0.00000
 Mulliken charges with hydrogens summed into heavy atoms:
               1
     1  C   -0.217356
     2  C   -0.150623
     3  C   -0.024275
     5  C    0.025530
     7  C    0.258236
     9  C    0.559680
    11  C   -0.008994
    12  C   -0.043085
    13  C   -0.149585
    15  C    0.172962
    19  C    0.065734
    23  O   -0.482306
    24  O   -0.005917
 Electronic spatial extent (au):  <R**2>=           2376.1454
 Charge=              0.0000 electrons
 Dipole moment (field-independent basis, Debye):
    X=             -4.8308    Y=             -4.2938    Z=              2.7530  Tot=              7.0251
 Quadrupole moment (field-independent basis, Debye-Ang):
   XX=            -76.3506   YY=            -83.7980   ZZ=            -73.8345
   XY=            -13.2358   XZ=              9.6238   YZ=              9.1394
 Traceless Quadrupole moment (field-independent basis, Debye-Ang):
   XX=              1.6438   YY=             -5.8037   ZZ=              4.1599
   XY=            -13.2358   XZ=              9.6238   YZ=              9.1394
 Octapole moment (field-independent basis, Debye-Ang**2):
  XXX=            -39.4342  YYY=            -12.7077  ZZZ=              1.6928  XYY=             -8.8627
  XXY=             -7.9889  XXZ=              4.4701  XZZ=             -4.9963  YZZ=              0.0538
  YYZ=              3.5512  XYZ=              2.5115
 Hexadecapole moment (field-independent basis, Debye-Ang**3):
 XXXX=          -1888.3119 YYYY=           -809.8800 ZZZZ=           -492.2213 XXXY=            -67.2271
 XXXZ=             43.1230 YYYX=            -40.0186 YYYZ=             30.6855 ZZZX=             18.3800
 ZZZY=             17.1942 XXYY=           -463.7074 XXZZ=           -418.6390 YYZZ=           -196.9365
 XXYZ=             43.2885 YYXZ=             13.1724 ZZXY=             -8.8665
 N-N= 7.630922529070D+02 E-N=-2.869709725346D+03  KE= 5.742781036813D+02
 Calling FoFJK, ICntrl=      2127 FMM=F ISym2X=0 I1Cent= 0 IOpClX= 0 NMat=1 NMatS=1 NMatT=0.
 ***** Axes restored to original set *****
 -------------------------------------------------------------------
 Center     Atomic                   Forces (Hartrees/Bohr)
 Number     Number              X              Y              Z
 -------------------------------------------------------------------
      1        6           0.011510794    0.014046884    0.007927343
      2        6           0.005099478   -0.011281111   -0.007286258
      3        6          -0.027814926    0.005697020    0.003566429
      4        1           0.003887329   -0.001941875   -0.001531141
      5        6          -0.016603868    0.005615187    0.003686921
      6        1           0.004267379    0.000997625    0.000740231
      7        6          -0.022480652   -0.006161118   -0.005210261
      8        1           0.003052997    0.003190303    0.001738776
      9        6           0.064629258    0.034388389    0.023611589
     10        1           0.000647006   -0.003360698   -0.002308769
     11        6          -0.022081392   -0.040728243   -0.020610453
     12        6           0.077045126   -0.005945671   -0.002997404
     13        6          -0.036918842   -0.000946797    0.004394935
     14        1          -0.000153090    0.003559020    0.001793048
     15        6          -0.062114681   -0.002393149   -0.022637828
     16        1          -0.002603546    0.003007710    0.000488982
     17        1          -0.004979334   -0.001965452   -0.001559662
     18        1           0.007641870    0.005225270    0.003725709
     19        6           0.093345750   -0.027995259    0.076016135
     20        1           0.005801479   -0.001646667    0.006163555
     21        1          -0.015430924    0.001050452    0.019834774
     22        1          -0.000598523    0.000974733   -0.000875742
     23        8          -0.085049934    0.038126201   -0.091017656
     24        8           0.014999592   -0.023801737    0.004657740
     25        1           0.004901655    0.012288983   -0.002310994
 -------------------------------------------------------------------
 Cartesian Forces:  Max     0.093345750 RMS     0.027502737

 GradGradGradGradGradGradGradGradGradGradGradGradGradGradGradGradGradGrad
 Berny optimization.
 FormGI is forming the generalized inverse of G from B-inverse, IUseBI=4.
 Internal  Forces:  Max     0.112794519 RMS     0.016789675
 Search for a local minimum.
 Step number   1 out of a maximum of  150
 All quantities printed in internal units (Hartrees-Bohrs-Radians)
 Mixed Optimization -- RFO/linear search
 Second derivative matrix not updated -- first step.
 ITU=  0
     Eigenvalues ---    0.00230   0.00230   0.00230   0.00230   0.00359
     Eigenvalues ---    0.00641   0.00767   0.01176   0.01417   0.01758
     Eigenvalues ---    0.02068   0.02128   0.02151   0.02157   0.02161
     Eigenvalues ---    0.02165   0.02180   0.02180   0.02185   0.04571
     Eigenvalues ---    0.04765   0.05165   0.05316   0.06380   0.11177
     Eigenvalues ---    0.13726   0.15873   0.15990   0.16000   0.16000
     Eigenvalues ---    0.16000   0.16000   0.16000   0.16000   0.16000
     Eigenvalues ---    0.16000   0.16111   0.18822   0.22000   0.22296
     Eigenvalues ---    0.22760   0.24260   0.24703   0.28273   0.29492
     Eigenvalues ---    0.30427   0.33344   0.33495   0.34112   0.34481
     Eigenvalues ---    0.34499   0.34533   0.35070   0.35078   0.35082
     Eigenvalues ---    0.35086   0.35107   0.35122   0.35130   0.35650
     Eigenvalues ---    0.40581   0.42191   0.44451   0.45254   0.46314
     Eigenvalues ---    0.46472   0.46547   0.46807   0.52224
 RFO step:  Lambda=-8.86524644D-02 EMin= 2.30000000D-03
 Linear search not attempted -- first point.
 Maximum step size (   0.300) exceeded in Quadratic search.
    -- Step size scaled by   0.638
 Iteration  1 RMS(Cart)=  0.06229207 RMS(Int)=  0.00097187
 Iteration  2 RMS(Cart)=  0.00238882 RMS(Int)=  0.00012671
 Iteration  3 RMS(Cart)=  0.00000438 RMS(Int)=  0.00012668
 Iteration  4 RMS(Cart)=  0.00000000 RMS(Int)=  0.00012668
 Variable       Old X    -DE/DX   Delta X   Delta X   Delta X     New X
                                 (Linear)    (Quad)   (Total)
    R1        2.63159   0.00930   0.00000   0.00955   0.00957   2.64116
    R2        2.63227  -0.01660   0.00000  -0.01955  -0.01954   2.61273
    R3        2.05478  -0.00457   0.00000  -0.00663  -0.00663   2.04815
    R4        2.63335  -0.00834   0.00000  -0.01017  -0.01016   2.62319
    R5        2.05464  -0.00442   0.00000  -0.00642  -0.00642   2.04822
    R6        2.63699   0.01280   0.00000   0.01537   0.01536   2.65235
    R7        2.05501  -0.00393   0.00000  -0.00570  -0.00570   2.04931
    R8        2.63964   0.00189   0.00000   0.00270   0.00269   2.64233
    R9        2.05542  -0.00408   0.00000  -0.00593  -0.00593   2.04949
   R10        2.64463   0.01483   0.00000   0.02109   0.02091   2.66554
   R11        2.63795   0.02985   0.00000   0.03699   0.03681   2.67476
   R12        2.80262  -0.06150   0.00000  -0.09089  -0.09086   2.71176
   R13        2.85911  -0.02899   0.00000  -0.04965  -0.04947   2.80964
   R14        2.05561  -0.00332   0.00000  -0.00482  -0.00482   2.05078
   R15        2.63283  -0.05142   0.00000  -0.05903  -0.05906   2.57377
   R16        2.05549  -0.00388   0.00000  -0.00563  -0.00563   2.04985
   R17        2.87601  -0.01823   0.00000  -0.03325  -0.03310   2.84291
   R18        2.05535  -0.00382   0.00000  -0.00555  -0.00555   2.04979
   R19        2.06440   0.00622   0.00000   0.00914   0.00914   2.07355
   R20        2.91546   0.00073   0.00000   0.00126   0.00126   2.91672
   R21        2.06496   0.00341   0.00000   0.00501   0.00501   2.06997
   R22        2.07141   0.10653   0.00000   0.15823   0.15823   2.22964
   R23        2.06527   0.00021   0.00000   0.00031   0.00031   2.06558
   R24        2.08450   0.11279   0.00000   0.17060   0.17060   2.25510
   R25        2.77932  -0.02284   0.00000  -0.03275  -0.03275   2.74657
   R26        1.84386  -0.01299   0.00000  -0.01357  -0.01357   1.83028
    A1        2.09362   0.00101   0.00000  -0.00009  -0.00010   2.09353
    A2        2.09489   0.00005   0.00000   0.00146   0.00146   2.09634
    A3        2.09467  -0.00105   0.00000  -0.00136  -0.00136   2.09331
    A4        2.09454   0.00475   0.00000   0.00753   0.00752   2.10207
    A5        2.09437  -0.00199   0.00000  -0.00276  -0.00276   2.09161
    A6        2.09427  -0.00277   0.00000  -0.00476  -0.00476   2.08951
    A7        2.09829  -0.00133   0.00000  -0.00185  -0.00189   2.09640
    A8        2.08802   0.00195   0.00000   0.00421   0.00423   2.09225
    A9        2.09688  -0.00061   0.00000  -0.00236  -0.00235   2.09453
   A10        2.09984   0.00087   0.00000   0.00245   0.00241   2.10226
   A11        2.08352   0.00205   0.00000   0.00515   0.00516   2.08868
   A12        2.09982  -0.00292   0.00000  -0.00759  -0.00757   2.09224
   A13        2.08680  -0.00582   0.00000  -0.01098  -0.01089   2.07591
   A14        2.08473   0.01419   0.00000   0.02162   0.02181   2.10654
   A15        2.11157  -0.00837   0.00000  -0.01064  -0.01092   2.10065
   A16        2.09326   0.00052   0.00000   0.00295   0.00294   2.09620
   A17        2.09209   0.00510   0.00000   0.00631   0.00639   2.09848
   A18        2.09783  -0.00562   0.00000  -0.00925  -0.00933   2.08850
   A19        2.11417   0.01156   0.00000   0.01765   0.01790   2.13207
   A20        2.12134  -0.01036   0.00000  -0.02062  -0.02074   2.10060
   A21        2.04674  -0.00123   0.00000   0.00278   0.00265   2.04939
   A22        2.13222  -0.00570   0.00000  -0.00917  -0.00934   2.12288
   A23        2.08363   0.00196   0.00000   0.00231   0.00240   2.08602
   A24        2.06732   0.00374   0.00000   0.00687   0.00696   2.07428
   A25        2.14998   0.00186   0.00000  -0.00271  -0.00255   2.14744
   A26        2.08920  -0.00054   0.00000   0.00234   0.00225   2.09145
   A27        2.04363  -0.00133   0.00000   0.00029   0.00021   2.04384
   A28        1.95606   0.00617   0.00000   0.01332   0.01342   1.96948
   A29        1.88870  -0.00222   0.00000  -0.00813  -0.00820   1.88050
   A30        1.91853   0.00025   0.00000   0.00778   0.00744   1.92597
   A31        1.88323   0.00008   0.00000   0.00250   0.00250   1.88573
   A32        1.92874   0.00053   0.00000   0.00890   0.00863   1.93737
   A33        1.88650  -0.00532   0.00000  -0.02648  -0.02640   1.86010
   A34        1.92725   0.00354   0.00000   0.01041   0.01048   1.93772
   A35        1.93990  -0.02758   0.00000  -0.07388  -0.07388   1.86602
   A36        1.92761   0.00621   0.00000   0.01170   0.01179   1.93940
   A37        1.89140   0.01568   0.00000   0.04615   0.04618   1.93758
   A38        1.88462  -0.00312   0.00000  -0.00173  -0.00213   1.88249
   A39        1.89158   0.00615   0.00000   0.00993   0.00933   1.90091
   A40        2.27458  -0.00847   0.00000  -0.02174  -0.02174   2.25284
   A41        1.73086   0.00600   0.00000   0.01540   0.01540   1.74626
   A42        3.07564   0.00730   0.00000   0.04768   0.04784   3.12349
   A43        3.10744   0.00650   0.00000   0.04800   0.04801   3.15545
    D1       -0.00057  -0.00016   0.00000  -0.00096  -0.00096  -0.00154
    D2        3.13837  -0.00011   0.00000  -0.00069  -0.00069   3.13768
    D3       -3.14019  -0.00021   0.00000  -0.00115  -0.00116  -3.14135
    D4       -0.00125  -0.00016   0.00000  -0.00088  -0.00088  -0.00213
    D5        0.00134   0.00013   0.00000   0.00084   0.00082   0.00217
    D6       -3.14076  -0.00024   0.00000  -0.00112  -0.00114   3.14128
    D7        3.14096   0.00018   0.00000   0.00102   0.00102  -3.14120
    D8       -0.00115  -0.00018   0.00000  -0.00093  -0.00094  -0.00209
    D9       -0.00127  -0.00003   0.00000  -0.00023  -0.00023  -0.00151
   D10        3.13746   0.00015   0.00000   0.00096   0.00096   3.13843
   D11       -3.14021  -0.00008   0.00000  -0.00051  -0.00051  -3.14072
   D12       -0.00148   0.00010   0.00000   0.00069   0.00069  -0.00079
   D13       -0.00027   0.00008   0.00000   0.00047   0.00047   0.00020
   D14       -3.13879  -0.00092   0.00000  -0.00471  -0.00475   3.13964
   D15       -3.14135   0.00044   0.00000   0.00243   0.00244  -3.13891
   D16        0.00332  -0.00056   0.00000  -0.00275  -0.00279   0.00053
   D17        0.00233   0.00022   0.00000   0.00151   0.00149   0.00382
   D18        3.13078   0.00013   0.00000   0.00101   0.00100   3.13178
   D19       -3.13638   0.00003   0.00000   0.00028   0.00027  -3.13611
   D20       -0.00793  -0.00006   0.00000  -0.00022  -0.00022  -0.00815
   D21       -0.00156  -0.00025   0.00000  -0.00163  -0.00162  -0.00318
   D22        3.13695   0.00077   0.00000   0.00359   0.00360   3.14055
   D23       -3.12980  -0.00033   0.00000  -0.00137  -0.00138  -3.13118
   D24        0.00870   0.00069   0.00000   0.00385   0.00385   0.01255
   D25        3.13799  -0.00046   0.00000  -0.00401  -0.00397   3.13402
   D26       -0.01026  -0.00004   0.00000  -0.00084  -0.00082  -0.01108
   D27       -0.01694  -0.00053   0.00000  -0.00452  -0.00446  -0.02140
   D28        3.11800  -0.00010   0.00000  -0.00135  -0.00132   3.11668
   D29       -3.08943   0.00126   0.00000   0.00848   0.00846  -3.08097
   D30        0.00465   0.00054   0.00000   0.00376   0.00375   0.00841
   D31        0.05524   0.00025   0.00000   0.00327   0.00324   0.05848
   D32       -3.13386  -0.00047   0.00000  -0.00145  -0.00147  -3.13533
   D33       -0.09948  -0.00167   0.00000  -0.00971  -0.00979  -0.10927
   D34       -2.17393  -0.00404   0.00000  -0.01554  -0.01559  -2.18953
   D35        2.05262   0.00351   0.00000   0.01669   0.01669   2.06930
   D36        3.08766  -0.00072   0.00000  -0.00453  -0.00458   3.08308
   D37        1.01321  -0.00309   0.00000  -0.01037  -0.01038   1.00282
   D38       -1.04343   0.00446   0.00000   0.02187   0.02190  -1.02153
   D39       -0.03991  -0.00010   0.00000  -0.00117  -0.00114  -0.04105
   D40        3.13170   0.00028   0.00000   0.00221   0.00222   3.13392
   D41        3.10828  -0.00052   0.00000  -0.00429  -0.00425   3.10403
   D42       -0.00329  -0.00013   0.00000  -0.00091  -0.00090  -0.00419
   D43        0.09398   0.00110   0.00000   0.00782   0.00781   0.10178
   D44        2.17165   0.00208   0.00000   0.00734   0.00735   2.17900
   D45       -2.05237  -0.00399   0.00000  -0.01813  -0.01820  -2.07057
   D46       -3.07691   0.00073   0.00000   0.00456   0.00457  -3.07233
   D47       -0.99923   0.00172   0.00000   0.00407   0.00412  -0.99511
   D48        1.05993  -0.00436   0.00000  -0.02139  -0.02143   1.03850
   D49        3.10259  -0.00503   0.00000  -0.01666  -0.01668   3.08590
   D50       -1.08088  -0.00109   0.00000  -0.00026  -0.00058  -1.08146
   D51        1.01930  -0.00736   0.00000  -0.02860  -0.02855   0.99076
   D52       -1.01257   0.00337   0.00000   0.01190   0.01209  -1.00048
   D53        1.08715   0.00731   0.00000   0.02830   0.02819   1.11534
   D54       -3.09585   0.00104   0.00000  -0.00004   0.00022  -3.09563
   D55        1.04459   0.00060   0.00000   0.00419   0.00424   1.04883
   D56       -3.13888   0.00454   0.00000   0.02059   0.02035  -3.11853
   D57       -1.03869  -0.00173   0.00000  -0.00775  -0.00762  -1.04631
   D58        0.97766   0.00115   0.00000   0.00595   0.00563   0.98328
   D59        3.10747  -0.00398   0.00000  -0.01282  -0.01309   3.09438
   D60       -1.12162   0.00322   0.00000   0.00952   0.01013  -1.11150
   D61       -1.52512  -0.00236   0.00000  -0.01636  -0.01636  -1.54147
         Item               Value     Threshold  Converged?
 Maximum Force            0.112795     0.002500     NO 
 RMS     Force            0.016790     0.001667     NO 
 Maximum Displacement     0.260938     0.010000     NO 
 RMS     Displacement     0.063099     0.006667     NO 
 Predicted change in Energy=-4.276595D-02
 GradGradGradGradGradGradGradGradGradGradGradGradGradGradGradGradGradGrad

                          Input orientation:                          
 ---------------------------------------------------------------------
 Center     Atomic      Atomic             Coordinates (Angstroms)
 Number     Number       Type             X           Y           Z
 ---------------------------------------------------------------------
      1          6           0       -9.578640    1.479457    3.141189
      2          6           0       -9.795676    0.313283    2.402039
      3          6           0       -8.288022    1.899847    3.404165
      4          1           0      -10.420390    2.053994    3.510044
      5          6           0       -8.722614   -0.427928    1.926591
      6          1           0      -10.808170   -0.016607    2.200033
      7          6           0       -7.410177   -0.016998    2.179133
      8          1           0       -8.905338   -1.332498    1.356853
      9          6           0       -7.195232    1.158919    2.927902
     10          1           0       -8.120990    2.805030    3.977548
     11          6           0       -5.854639    1.594185    3.197303
     12          6           0       -6.312141   -0.775148    1.706955
     13          6           0       -5.026285   -0.388075    1.934415
     14          1           0       -6.493088   -1.689666    1.152367
     15          6           0       -4.667531    0.885351    2.650592
     16          1           0       -4.206699   -0.995165    1.565221
     17          1           0       -5.676260    2.494011    3.777144
     18          1           0       -4.013754    0.628596    3.493600
     19          6           0       -3.855863    1.825537    1.734335
     20          1           0       -2.948192    1.332185    1.370195
     21          1           0       -4.562479    2.126128    0.838542
     22          1           0       -3.554446    2.731103    2.267128
     23          8           0       -5.294581    2.411027   -0.059756
     24          8           0       -6.610312    3.026456   -0.009406
     25          1           0       -7.163387    2.236169    0.077950
 ---------------------------------------------------------------------
                    Distance matrix (angstroms):
                    1          2          3          4          5
     1  C    0.000000
     2  C    1.397644   0.000000
     3  C    1.382598   2.407169   0.000000
     4  H    1.083832   2.155926   2.140553   0.000000
     5  C    2.417880   1.388131   2.791170   3.398486   0.000000
     6  H    2.153074   1.083872   3.387311   2.480704   2.143245
     7  C    2.804845   2.418549   2.438362   3.888666   1.398261
     8  H    3.397688   2.143295   3.875645   4.289516   1.084544
     9  C    2.414304   2.784590   1.403563   3.397307   2.419422
    10  H    2.140417   3.390517   1.084447   2.463708   3.875616
    11  C    3.726190   4.219589   2.461214   4.599491   3.732149
    12  C    4.220223   3.715217   3.733661   5.304045   2.445236
    13  C    5.066350   4.843312   4.246608   6.127208   3.696552
    14  H    4.849678   4.059627   4.601845   5.915854   2.676227
    15  C    4.971180   5.165938   3.834713   5.932940   4.323491
    16  H    6.120880   5.800773   5.331041   7.189553   4.565724
    17  H    4.081951   4.859638   2.704338   4.771974   4.608964
    18  H    5.640577   5.892499   4.460206   6.563309   5.073965
    19  C    5.903320   6.165560   4.736865   6.804290   5.366595
    20  H    6.864469   6.999350   5.742217   7.806005   6.062304
    21  H    5.557178   5.754762   4.529160   6.438731   5.001378
    22  H    6.214621   6.694551   4.938682   7.010315   6.066746
    23  O    5.428354   5.542637   4.606598   6.256586   4.874080
    24  O    4.596784   4.829381   3.966917   5.277207   4.488059
    25  H    3.973599   4.003477   3.527269   4.735032   3.598065
                    6          7          8          9         10
     6  H    0.000000
     7  C    3.398057   0.000000
     8  H    2.462375   2.154575   0.000000
     9  C    3.868459   1.410545   3.405851   0.000000
    10  H    4.282772   3.421023   4.960080   2.160663   0.000000
    11  C    5.303458   2.460138   4.610802   1.435000   2.685382
    12  C    4.586151   1.415424   2.675421   2.451770   4.609252
    13  C    5.799891   2.424979   4.033927   2.843332   4.893619
    14  H    4.745172   2.166360   2.447107   3.429280   5.552837
    15  C    6.222859   2.925511   4.954960   2.557540   4.168016
    16  H    6.703729   3.405285   4.715339   3.927888   5.965105
    17  H    5.926802   3.444601   5.561198   2.193390   2.472569
    18  H    6.946487   3.698689   5.686754   3.274608   4.673377
    19  C    7.207284   4.028142   5.967653   3.608375   4.917593
    20  H    8.017925   4.731172   6.525972   4.527010   5.977073
    21  H    6.741931   3.807828   5.575945   3.497472   4.793461
    22  H    7.756992   4.735659   6.780377   4.020412   4.876918
    23  O    6.434262   3.922203   5.390578   3.755842   4.944053
    24  O    5.635944   3.833028   5.112171   3.529534   4.269307
    25  H    4.781493   3.090734   4.171974   3.046918   4.055549
                   11         12         13         14         15
    11  C    0.000000
    12  C    2.836227   0.000000
    13  C    2.492069   1.361980   0.000000
    14  H    3.920849   1.084736   2.111220   0.000000
    15  C    1.486796   2.520407   1.504403   3.494001   0.000000
    16  H    3.476224   2.121646   1.084705   2.424944   2.219626
    17  H    1.085228   3.921406   3.482030   5.005977   2.207813
    18  H    2.099764   3.231900   2.118937   4.123445   1.097274
    19  C    2.487751   3.577375   2.511971   4.432865   1.543464
    20  H    3.443022   3.983769   2.756104   4.663188   2.189796
    21  H    2.741604   3.497551   2.781594   4.287892   2.198656
    22  H    2.729230   4.495829   3.465008   5.424159   2.189248
    23  O    3.404311   3.782645   3.447270   4.440872   3.172833
    24  O    3.592413   4.181746   4.236344   4.858525   3.928654
    25  H    3.443157   3.527932   3.860094   4.125027   3.830469
                   16         17         18         19         20
    16  H    0.000000
    17  H    4.384810   0.000000
    18  H    2.528334   2.514775   0.000000
    19  C    2.847463   2.816695   2.133684   0.000000
    20  H    2.653005   3.819109   2.477762   1.095381   0.000000
    21  H    3.224455   3.164052   3.097262   1.179875   1.875879
    22  H    3.847490   2.615044   2.477041   1.093056   1.768899
    23  O    3.927617   3.856730   4.176591   2.373072   2.951982
    24  O    4.942696   3.936231   4.976234   3.474167   4.264385
    25  H    4.625526   3.995256   4.916416   3.721821   4.500550
                   21         22         23         24         25
    21  H    0.000000
    22  H    1.850130   0.000000
    23  O    1.193349   2.923168   0.000000
    24  O    2.392327   3.822062   1.453423   0.000000
    25  H    2.712072   4.249932   1.882014   0.968544   0.000000
 Stoichiometry    C11H12O2
 Framework group  C1[X(C11H12O2)]
 Deg. of freedom    69
 Full point group                 C1      NOp   1
 Largest Abelian subgroup         C1      NOp   1
 Largest concise Abelian subgroup C1      NOp   1
                         Standard orientation:                         
 ---------------------------------------------------------------------
 Center     Atomic      Atomic             Coordinates (Angstroms)
 Number     Number       Type             X           Y           Z
 ---------------------------------------------------------------------
      1          6           0       -2.916435    0.758857    0.712781
      2          6           0       -3.147444    0.090270   -0.492638
      3          6           0       -1.691743    0.641367    1.343578
      4          1           0       -3.696319    1.368013    1.154823
      5          6           0       -2.153546   -0.691939   -1.064671
      6          1           0       -4.109423    0.180699   -0.983756
      7          6           0       -0.907323   -0.820137   -0.443682
      8          1           0       -2.347248   -1.207669   -1.998876
      9          6           0       -0.679007   -0.146135    0.774197
     10          1           0       -1.513685    1.160882    2.278685
     11          6           0        0.593867   -0.267948    1.425488
     12          6           0        0.105816   -1.625815   -1.016272
     13          6           0        1.329231   -1.757271   -0.432350
     14          1           0       -0.092359   -2.156611   -1.941276
     15          6           0        1.721096   -1.028207    0.823888
     16          1           0        2.081921   -2.388148   -0.892825
     17          1           0        0.779758    0.241026    2.365759
     18          1           0        2.052889   -1.772076    1.559130
     19          6           0        2.923172   -0.094136    0.569314
     20          1           0        3.779821   -0.653776    0.178399
     21          1           0        2.564897    0.724087   -0.201566
     22          1           0        3.238909    0.401503    1.490956
     23          8           0        2.180235    1.537137   -0.985827
     24          8           0        1.050389    2.445702   -0.883868
     25          1           0        0.349743    1.885926   -1.249688
 ---------------------------------------------------------------------
 Rotational constants (GHZ):           1.1875465           0.6133250           0.5439738
 Standard basis: 6-311+G(2df,2p) (5D, 7F)
 There are   615 symmetry adapted cartesian basis functions of A   symmetry.
 There are   550 symmetry adapted basis functions of A   symmetry.
   550 basis functions,   808 primitive gaussians,   615 cartesian basis functions
    47 alpha electrons       47 beta electrons
       nuclear repulsion energy       764.4646110173 Hartrees.
 NAtoms=   25 NActive=   25 NUniq=   25 SFac= 1.00D+00 NAtFMM=   60 NAOKFM=F Big=F
 Integral buffers will be    131072 words long.
 Raffenetti 2 integral format.
 Two-electron integral symmetry is turned on.
 One-electron integrals computed using PRISM.
 NBasis=   550 RedAO= T EigKep=  2.05D-06  NBF=   550
 NBsUse=   548 1.00D-06 EigRej=  6.90D-07 NBFU=   548
 Initial guess from the checkpoint file:  "/scratch/dinius.ab/QMscratch/Gau-31000.chk"
 B after Tr=    -0.000000    0.000000   -0.000000
         Rot=    0.998932   -0.043411   -0.002221   -0.015658 Ang=  -5.30 deg.
 ExpMin= 4.38D-02 ExpMax= 8.59D+03 ExpMxC= 1.30D+03 IAcc=2 IRadAn=         4 AccDes= 0.00D+00
 Harris functional with IExCor= 1009 and IRadAn=       4 diagonalized for initial guess.
 HarFok:  IExCor= 1009 AccDes= 0.00D+00 IRadAn=         4 IDoV= 1 UseB2=F ITyADJ=14
 ICtDFT=  3500011 ScaDFX=  1.000000  1.000000  1.000000  1.000000
 FoFCou: FMM=F IPFlag=           0 FMFlag=      100000 FMFlg1=           0
         NFxFlg=           0 DoJE=T BraDBF=F KetDBF=T FulRan=T
         wScrn=  0.000000 ICntrl=       500 IOpCl=  0 I1Cent=   200000004 NGrid=           0
         NMat0=    1 NMatS0=      1 NMatT0=    0 NMatD0=    1 NMtDS0=    0 NMtDT0=    0
 Petite list used in FoFCou.
 Requested convergence on RMS density matrix=1.00D-08 within 128 cycles.
 Requested convergence on MAX density matrix=1.00D-06.
 Requested convergence on             energy=1.00D-06.
 No special actions if energy rises.
 SCF Done:  E(RM062X) =  -576.512946767     A.U. after   18 cycles
            NFock= 18  Conv=0.27D-08     -V/T= 2.0039
 Calling FoFJK, ICntrl=      2127 FMM=F ISym2X=0 I1Cent= 0 IOpClX= 0 NMat=1 NMatS=1 NMatT=0.
 ***** Axes restored to original set *****
 -------------------------------------------------------------------
 Center     Atomic                   Forces (Hartrees/Bohr)
 Number     Number              X              Y              Z
 -------------------------------------------------------------------
      1        6           0.007514480    0.009573391    0.005732897
      2        6           0.004413129   -0.007485464   -0.004867337
      3        6          -0.020815010    0.003507880    0.001256246
      4        1           0.002048257   -0.001213449   -0.001006569
      5        6          -0.009265413    0.003552516    0.002461308
      6        1           0.001872271    0.000456081    0.000419007
      7        6          -0.013573449   -0.005507234   -0.005505819
      8        1           0.001764973    0.001653323    0.000466655
      9        6           0.042241462    0.019518613    0.015179775
     10        1           0.001315215   -0.001842306   -0.001084910
     11        6          -0.011398745   -0.024414984   -0.013639980
     12        6           0.037971659   -0.003880387   -0.000436845
     13        6          -0.014543705    0.002376739    0.004532248
     14        1          -0.002067745    0.002029162    0.000715459
     15        6          -0.042202909   -0.005319081   -0.013734489
     16        1          -0.001188280    0.002243828   -0.000135619
     17        1          -0.002492686   -0.000560113   -0.000564261
     18        1           0.005357462    0.003923916    0.003033488
     19        6           0.046885348   -0.004804949    0.019993168
     20        1           0.001020038   -0.001537327    0.006097503
     21        1          -0.001414609    0.000476751    0.025163811
     22        1          -0.000989734   -0.000211623    0.000240711
     23        8          -0.047877689    0.016824944   -0.048548867
     24        8           0.014836462   -0.015977344    0.006618238
     25        1           0.000589219    0.006617114   -0.002385817
 -------------------------------------------------------------------
 Cartesian Forces:  Max     0.048548867 RMS     0.015044536

 GradGradGradGradGradGradGradGradGradGradGradGradGradGradGradGradGradGrad
 Berny optimization.
 Using GEDIIS/GDIIS optimizer.
 FormGI is forming the generalized inverse of G from B-inverse, IUseBI=4.
 Internal  Forces:  Max     0.055060029 RMS     0.008380887
 Search for a local minimum.
 Step number   2 out of a maximum of  150
 All quantities printed in internal units (Hartrees-Bohrs-Radians)
 Mixed Optimization -- RFO/linear search
[...]
   R20        2.87917  -0.00402  -0.00004  -0.00056  -0.00060   2.87857
   R21        2.05588   0.00105   0.00002   0.00351   0.00353   2.05941
   R22        2.06503  -0.00703  -0.00015  -0.01636  -0.01648   2.04854
   R23        2.05601   0.00115   0.00003   0.00505   0.00509   2.06110
   R24        4.49145   0.00195   0.00032   0.09304   0.09335   4.58479
   R25        2.67293   0.00046   0.00013  -0.00548  -0.00535   2.66758
   R26        1.82525   0.00135   0.00002   0.00700   0.00701   1.83226
    A1        2.08741   0.00003  -0.00002   0.00051   0.00045   2.08787
    A2        2.09813   0.00001   0.00002   0.00109   0.00110   2.09922
    A3        2.09765  -0.00004   0.00000  -0.00160  -0.00162   2.09603
    A4        2.09461   0.00073   0.00003   0.00210   0.00212   2.09673
    A5        2.09594  -0.00038  -0.00001   0.00002   0.00001   2.09594
    A6        2.09257  -0.00035  -0.00002  -0.00204  -0.00207   2.09050
    A7        2.10610  -0.00074  -0.00002  -0.00333  -0.00338   2.10272
    A8        2.09963   0.00011  -0.00001  -0.00052  -0.00052   2.09910
    A9        2.07738   0.00064   0.00003   0.00393   0.00397   2.08135
   A10        2.10618   0.00022   0.00000   0.00062   0.00060   2.10678
   A11        2.09375   0.00012   0.00000   0.00026   0.00025   2.09400
   A12        2.08325  -0.00034  -0.00000  -0.00087  -0.00088   2.08237
   A13        2.07967  -0.00093  -0.00005  -0.00335  -0.00340   2.07627
   A14        2.12826  -0.00051   0.00001  -0.00253  -0.00249   2.12577
   A15        2.07512   0.00144   0.00005   0.00589   0.00591   2.08103
   A16        2.09216   0.00070   0.00006   0.00373   0.00375   2.09592
   A17        2.11564   0.00088   0.00000   0.00469   0.00469   2.12033
   A18        2.06976  -0.00151  -0.00006  -0.00689  -0.00701   2.06275
   A19        1.96116   0.00008   0.00000   0.00409   0.00402   1.96517
   A20        1.93186  -0.00041   0.00005  -0.00236  -0.00236   1.92950
   A21        1.90949   0.00155   0.00023   0.01051   0.01074   1.92023
   A22        2.11855  -0.00010   0.00002   0.00064   0.00060   2.11915
   A23        2.05316   0.00047   0.00000   0.00126   0.00128   2.05445
   A24        2.11104  -0.00034  -0.00002  -0.00211  -0.00212   2.10892
   A25        2.12894  -0.00075  -0.00007  -0.00427  -0.00445   2.12449
   A26        2.10307   0.00024   0.00001  -0.00054  -0.00057   2.10250
   A27        2.05060   0.00051   0.00005   0.00415   0.00415   2.05475
   A28        1.93521   0.00065  -0.00003  -0.00398  -0.00397   1.93125
   A29        1.84634   0.00237  -0.00003  -0.00393  -0.00388   1.84246
   A30        1.92600  -0.00454   0.00005   0.02308   0.02320   1.94920
   A31        1.85152   0.00000   0.00009   0.01495   0.01493   1.86646
   A32        1.99035   0.00087   0.00011  -0.01460  -0.01451   1.97584
   A33        1.90715   0.00103  -0.00020  -0.01571  -0.01589   1.89126
   A34        1.93059   0.01797  -0.00003   0.01086   0.01087   1.94147
   A35        1.93104  -0.01537  -0.00020   0.00847   0.00832   1.93937
   A36        1.93425   0.00144  -0.00001  -0.01546  -0.01544   1.91881
   A37        1.90349  -0.00179   0.00033  -0.00256  -0.00243   1.90106
   A38        1.89033  -0.00497  -0.00013  -0.01079  -0.01094   1.87939
   A39        1.87262   0.00236   0.00004   0.00911   0.00915   1.88177
   A40        2.32663   0.00613   0.00013   0.07503   0.07517   2.40179
   A41        1.76955   0.00538   0.00024   0.02740   0.02765   1.79719
   A42        1.74483  -0.01434  -0.00001  -0.01636  -0.01624   1.72859
   A43        2.81266  -0.00166  -0.00091   0.00267   0.00177   2.81443
    D1        0.00594   0.00017   0.00001   0.00455   0.00458   0.01053
    D2        3.13552   0.00035   0.00006   0.01181   0.01189  -3.13577
    D3       -3.13562  -0.00011  -0.00007  -0.00766  -0.00772   3.13985
    D4       -0.00604   0.00007  -0.00001  -0.00041  -0.00041  -0.00645
    D5        0.01089  -0.00052  -0.00008  -0.01669  -0.01674  -0.00585
    D6        3.13878  -0.00004  -0.00008  -0.00908  -0.00914   3.12964
    D7       -3.13073  -0.00024  -0.00000  -0.00448  -0.00446  -3.13519
    D8       -0.00284   0.00025  -0.00001   0.00313   0.00313   0.00029
    D9       -0.01028   0.00019   0.00004   0.00672   0.00676  -0.00352
   D10        3.13114   0.00009   0.00000  -0.00098  -0.00098   3.13016
   D11       -3.13988   0.00001  -0.00002  -0.00053  -0.00054  -3.14042
   D12        0.00154  -0.00009  -0.00005  -0.00824  -0.00828  -0.00674
   D13       -0.02331   0.00050   0.00010   0.01738   0.01746  -0.00584
   D14        3.00295   0.00103   0.00013   0.03261   0.03279   3.03574
   D15        3.13182   0.00002   0.00010   0.00990   0.00998  -3.14139
   D16       -0.12511   0.00056   0.00013   0.02513   0.02531  -0.09981
   D17       -0.00209  -0.00020  -0.00001  -0.00599  -0.00600  -0.00809
   D18        3.12153   0.00016  -0.00000  -0.00490  -0.00490   3.11664
   D19        3.13968  -0.00011   0.00002   0.00167   0.00169   3.14137
   D20       -0.01989   0.00026   0.00003   0.00276   0.00279  -0.01710
   D21        0.01876  -0.00014  -0.00005  -0.00597  -0.00604   0.01272
   D22       -3.01052  -0.00081  -0.00009  -0.02155  -0.02161  -3.03212
   D23       -3.10541  -0.00047  -0.00007  -0.00694  -0.00703  -3.11244
   D24        0.14850  -0.00114  -0.00010  -0.02251  -0.02260   0.12590
   D25       -2.93008  -0.00024   0.00006   0.01058   0.01064  -2.91945
   D26        0.17991   0.00053  -0.00005   0.00312   0.00307   0.18298
   D27        0.19358   0.00010   0.00008   0.01157   0.01165   0.20523
   D28       -2.97961   0.00088  -0.00004   0.00411   0.00409  -2.97552
   D29        2.61005   0.00081  -0.00004  -0.00285  -0.00289   2.60716
   D30        0.46949  -0.00095  -0.00037  -0.01765  -0.01798   0.45151
   D31       -0.64543   0.00148  -0.00000   0.01286   0.01283  -0.63261
   D32       -2.78599  -0.00029  -0.00033  -0.00193  -0.00226  -2.78826
   D33        0.78639   0.00109   0.00016   0.01055   0.01065   0.79704
   D34       -1.21346  -0.00052   0.00008  -0.00293  -0.00283  -1.21629
   D35        3.00884  -0.00074   0.00031   0.00599   0.00628   3.01513
   D36        2.93951   0.00174   0.00038   0.01796   0.01832   2.95783
   D37        0.93967   0.00013   0.00030   0.00448   0.00484   0.94451
   D38       -1.12122  -0.00009   0.00054   0.01340   0.01396  -1.10726
   D39        0.00523   0.00181   0.00008   0.01221   0.01230   0.01753
   D40        3.10933   0.00162  -0.00020  -0.00916  -0.00931   3.10001
   D41       -3.10372   0.00100   0.00019   0.01985   0.02003  -3.08368
   D42        0.00037   0.00081  -0.00008  -0.00152  -0.00158  -0.00120
   D43       -0.50450  -0.00169  -0.00016  -0.01856  -0.01871  -0.52321
   D44        1.49209   0.00142  -0.00016  -0.01693  -0.01703   1.47506
   D45       -2.69123   0.00321  -0.00029  -0.03495  -0.03529  -2.72652
   D46        2.67351  -0.00151   0.00011   0.00228   0.00242   2.67594
   D47       -1.61307   0.00160   0.00011   0.00392   0.00410  -1.60897
   D48        0.48679   0.00340  -0.00002  -0.01410  -0.01416   0.47263
   D49       -3.09246   0.00490  -0.00131  -0.00508  -0.00641  -3.09888
   D50       -0.98116   0.00438  -0.00104   0.00455   0.00353  -0.97763
   D51        1.09385  -0.00163  -0.00112   0.01145   0.01031   1.10416
   D52       -0.90087   0.00275  -0.00122  -0.00296  -0.00428  -0.90515
   D53        1.21043   0.00223  -0.00095   0.00667   0.00566   1.21609
   D54       -2.99774  -0.00378  -0.00104   0.01357   0.01244  -2.98530
   D55        1.16754   0.00402  -0.00118  -0.00430  -0.00541   1.16213
   D56       -3.00435   0.00350  -0.00091   0.00532   0.00453  -2.99981
   D57       -0.92933  -0.00251  -0.00099   0.01222   0.01130  -0.91802
   D58        2.07379   0.00702   0.00056  -0.03117  -0.03057   2.04321
   D59       -2.86747  -0.01109  -0.00031  -0.05045  -0.05085  -2.91832
   D60        0.18703   0.00563   0.00014  -0.01167  -0.01149   0.17554
   D61        3.04468  -0.00232   0.00080  -0.11578  -0.11498   2.92970
         Item               Value     Threshold  Converged?
 Maximum Force            0.017970     0.002500     NO 
 RMS     Force            0.003336     0.001667     NO 
 Maximum Displacement     0.188196     0.010000     NO 
 RMS     Displacement     0.034512     0.006667     NO 
 Predicted change in Energy=-1.017959D-03
 GradGradGradGradGradGradGradGradGradGradGradGradGradGradGradGradGradGrad

                          Input orientation:                          
 ---------------------------------------------------------------------
 Center     Atomic      Atomic             Coordinates (Angstroms)
 Number     Number       Type             X           Y           Z
 ---------------------------------------------------------------------
      1          6           0       -9.608664    1.363018    3.041014
      2          6           0       -9.771097    0.050392    2.626799
      3          6           0       -8.356496    1.965935    2.943753
      4          1           0      -10.450415    1.920900    3.427006
      5          6           0       -8.686785   -0.663764    2.128854
      6          1           0      -10.740979   -0.423238    2.693926
      7          6           0       -7.430678   -0.074277    2.035300
      8          1           0       -8.814175   -1.692195    1.815956
      9          6           0       -7.273766    1.260611    2.443085
     10          1           0       -8.220359    2.994092    3.253888
     11          6           0       -5.939438    1.929285    2.200757
     12          6           0       -6.263626   -0.815049    1.542554
     13          6           0       -5.031490   -0.340578    1.685722
     14          1           0       -6.436301   -1.782745    1.089257
     15          6           0       -4.762055    0.972572    2.381064
     16          1           0       -4.178829   -0.917476    1.350869
     17          1           0       -5.820459    2.796453    2.854998
     18          1           0       -4.716450    0.761202    3.457039
     19          6           0       -3.445857    1.614720    1.961983
     20          1           0       -2.617447    0.912490    2.052846
     21          1           0       -3.493570    1.971702    0.939517
     22          1           0       -3.227812    2.469090    2.603934
     23          8           0       -5.877994    2.412340    0.857926
     24          8           0       -6.728094    3.535213    0.762226
     25          1           0       -7.592074    3.138495    0.571808
 ---------------------------------------------------------------------
                    Distance matrix (angstroms):
                    1          2          3          4          5
     1  C    0.000000
     2  C    1.385982   0.000000
     3  C    1.393160   2.402261   0.000000
     4  H    1.081095   2.144902   2.149432   0.000000
     5  C    2.406189   1.390576   2.772809   3.387636   0.000000
     6  H    2.143203   1.081435   3.384718   2.473220   2.144031
     7  C    2.796588   2.417224   2.417621   3.877678   1.390702
     8  H    3.386194   2.147039   3.855297   4.281030   1.082499
     9  C    2.412417   2.781194   1.385805   3.390455   2.408025
    10  H    2.152466   3.385764   1.082508   2.480900   3.855278
    11  C    3.806562   4.288748   2.528944   4.674684   3.778490
    12  C    4.263642   3.771860   3.751978   5.344696   2.497666
    13  C    5.068489   4.847923   4.237725   6.124631   3.696214
    14  H    4.875353   4.104301   4.602054   5.940973   2.719845
    15  C    4.906894   5.099147   3.771392   5.860953   4.259661
    16  H    6.127019   5.817064   5.320173   7.190238   4.581626
    17  H    4.054607   4.816686   2.670041   4.746607   4.551506
    18  H    4.946617   5.171461   3.868434   5.850142   4.422462
    19  C    6.261618   6.549638   5.020120   7.162672   5.717225
    20  H    7.075067   7.228232   5.902554   8.016271   6.271142
    21  H    6.494703   6.778325   5.259757   7.388361   5.943878
    22  H    6.490741   6.976045   5.164499   7.289991   6.311962
    23  O    4.448017   4.885075   3.270004   5.267705   4.355110
    24  O    4.267199   4.988033   3.142195   4.854146   4.830688
    25  H    3.649100   4.302035   2.754153   4.219574   4.252054
                    6          7          8          9         10
     6  H    0.000000
     7  C    3.393177   0.000000
     8  H    2.468533   2.140055   0.000000
     9  C    3.862620   1.404577   3.388985   0.000000
    10  H    4.283133   3.394620   4.937768   2.135040   0.000000
    11  C    5.369578   2.503085   4.639753   1.512044   2.728644
    12  C    4.639597   1.467499   2.710984   2.477843   4.611618
    13  C    5.798411   2.439103   4.019022   2.857483   4.873198
    14  H    4.790978   2.191494   2.488087   3.434562   5.539554
    15  C    6.147658   2.887386   4.882623   2.528934   4.099784
    16  H    6.716389   3.428404   4.722598   3.938989   5.937660
    17  H    5.882505   3.392020   5.494534   2.154201   2.440839
    18  H    6.187098   3.175910   5.050115   2.795958   4.159861
    19  C    7.609718   4.328613   6.306810   3.874240   5.134934
    20  H    8.257537   4.913371   6.726064   4.685593   6.096572
    21  H    7.831898   4.570295   6.519289   4.129921   5.361355
    22  H    8.051170   4.945316   7.010326   4.225641   5.061975
    23  O    5.921150   3.159161   5.136749   2.405699   3.400845
    24  O    5.958527   3.891370   5.726070   2.880426   2.954327
    25  H    5.206239   3.534086   5.135855   2.670102   2.758469
                   11         12         13         14         15
    11  C    0.000000
    12  C    2.840722   0.000000
    13  C    2.498382   1.328073   0.000000
    14  H    3.906593   1.082465   2.099788   0.000000
    15  C    1.527758   2.480606   1.510120   3.473275   0.000000
    16  H    3.453419   2.096095   1.082575   2.431731   2.230187
    17  H    1.092780   3.868055   3.439570   4.946327   2.161336
    18  H    2.106743   2.922940   2.109677   3.877621   1.097487
    19  C    2.524660   3.744265   2.532537   4.609466   1.523273
    20  H    3.477266   4.066868   2.744552   4.772467   2.170410
    21  H    2.752235   3.975279   2.875528   4.772626   2.164572
    22  H    2.794076   4.596550   3.462746   5.537757   2.154795
    23  O    1.428395   3.321666   2.996727   4.238390   2.374490
    24  O    2.295725   4.444032   4.330482   5.335988   3.612904
    25  H    2.616652   4.282246   4.461092   5.081551   3.996703
                   16         17         18         19         20
    16  H    0.000000
    17  H    4.330198   0.000000
    18  H    2.746443   2.392391   0.000000
    19  C    2.706053   2.798696   2.139648   0.000000
    20  H    2.505885   3.801585   2.529913   1.089792   0.000000
    21  H    2.997689   3.124691   3.049371   1.084042   1.768905
    22  H    3.734091   2.625266   2.420891   1.090685   1.760468
    23  O    3.770653   2.034491   3.291023   2.787549   3.782664
    24  O    5.164464   2.397763   4.359343   3.987579   5.043986
    25  H    5.357992   2.910081   4.716491   4.630938   5.647609
                   21         22         23         24         25
    21  H    0.000000
    22  H    1.757357   0.000000
    23  O    2.426169   3.174151   0.000000
    24  O    3.596963   4.096399   1.411621   0.000000
    25  H    4.277189   4.860496   1.883410   0.969590   0.000000
 Stoichiometry    C11H12O2
 Framework group  C1[X(C11H12O2)]
 Deg. of freedom    69
 Full point group                 C1      NOp   1
 Largest Abelian subgroup         C1      NOp   1
 Largest concise Abelian subgroup C1      NOp   1
                         Standard orientation:                         
 ---------------------------------------------------------------------
 Center     Atomic      Atomic             Coordinates (Angstroms)
 Number     Number       Type             X           Y           Z
 ---------------------------------------------------------------------
      1          6           0       -2.858155    0.827751    0.568224
      2          6           0       -3.213396   -0.383492   -0.004176
      3          6           0       -1.511345    1.137584    0.744296
      4          1           0       -3.620361    1.534047    0.866474
      5          6           0       -2.230473   -1.288907   -0.388606
      6          1           0       -4.256460   -0.629373   -0.149306
      7          6           0       -0.883392   -0.993263   -0.209672
      8          1           0       -2.511075   -2.238657   -0.825687
      9          6           0       -0.527580    0.241293    0.357871
     10          1           0       -1.221893    2.085279    1.180089
     11          6           0        0.938756    0.606225    0.412304
     12          6           0        0.172406   -1.943571   -0.578126
     13          6           0        1.428517   -1.770186   -0.183281
     14          1           0       -0.112935   -2.814649   -1.153914
     15          6           0        1.834596   -0.601455    0.682530
     16          1           0        2.187742   -2.500857   -0.431604
     17          1           0        1.114252    1.378236    1.165541
     18          1           0        1.634941   -0.889388    1.722584
     19          6           0        3.310643   -0.246348    0.557844
     20          1           0        3.941504   -1.121925    0.709591
     21          1           0        3.528985    0.179986   -0.414634
     22          1           0        3.580826    0.491689    1.314082
     23          8           0        1.347643    1.151946   -0.842810
     24          8           0        0.785274    2.441556   -0.958227
     25          1           0       -0.092322    2.263803   -1.330160
 ---------------------------------------------------------------------
 Rotational constants (GHZ):           1.3594020           0.6958707           0.5262718
 Standard basis: 6-311+G(2df,2p) (5D, 7F)
 There are   615 symmetry adapted cartesian basis functions of A   symmetry.
 There are   550 symmetry adapted basis functions of A   symmetry.
   550 basis functions,   808 primitive gaussians,   615 cartesian basis functions
    47 alpha electrons       47 beta electrons
       nuclear repulsion energy       791.7151913441 Hartrees.
 NAtoms=   25 NActive=   25 NUniq=   25 SFac= 1.00D+00 NAtFMM=   60 NAOKFM=F Big=F
 Integral buffers will be    131072 words long.
 Raffenetti 2 integral format.
 Two-electron integral symmetry is turned on.
 One-electron integrals computed using PRISM.
 NBasis=   550 RedAO= T EigKep=  1.17D-06  NBF=   550
 NBsUse=   549 1.00D-06 EigRej=  4.55D-07 NBFU=   549
 Initial guess from the checkpoint file:  "/scratch/dinius.ab/QMscratch/Gau-31000.chk"
 B after Tr=     0.000000   -0.000000    0.000000
         Rot=    0.999974   -0.000203   -0.000978   -0.007162 Ang=  -0.83 deg.
 ExpMin= 4.38D-02 ExpMax= 8.59D+03 ExpMxC= 1.30D+03 IAcc=2 IRadAn=         4 AccDes= 0.00D+00
 Harris functional with IExCor= 1009 and IRadAn=       4 diagonalized for initial guess.
 HarFok:  IExCor= 1009 AccDes= 0.00D+00 IRadAn=         4 IDoV= 1 UseB2=F ITyADJ=14
 ICtDFT=  3500011 ScaDFX=  1.000000  1.000000  1.000000  1.000000
 FoFCou: FMM=F IPFlag=           0 FMFlag=      100000 FMFlg1=           0
         NFxFlg=           0 DoJE=T BraDBF=F KetDBF=T FulRan=T
         wScrn=  0.000000 ICntrl=       500 IOpCl=  0 I1Cent=   200000004 NGrid=           0
         NMat0=    1 NMatS0=      1 NMatT0=    0 NMatD0=    1 NMtDS0=    0 NMtDT0=    0
 Petite list used in FoFCou.
 Requested convergence on RMS density matrix=1.00D-08 within 128 cycles.
 Requested convergence on MAX density matrix=1.00D-06.
 Requested convergence on             energy=1.00D-06.
 No special actions if energy rises.
 SCF Done:  E(RM062X) =  -576.688983010     A.U. after   13 cycles
            NFock= 13  Conv=0.64D-08     -V/T= 2.0039
 Calling FoFJK, ICntrl=      2127 FMM=F ISym2X=0 I1Cent= 0 IOpClX= 0 NMat=1 NMatS=1 NMatT=0.
