 Entering Gaussian System, Link 0=g16
 Input=rxn921.com
 Output=rxn921.log
