 Entering Gaussian System, Link 0=g16
 Input=rxn902.com
 Output=rxn902.log
 Initial command:
 /shared/centos7/gaussian/g16/l1.exe "/scratch/dinius.ab/QMscratch/Gau-29942.inp" -scrdir="/scratch/dinius.ab/QMscratch/"
 Entering Link 1 = /shared/centos7/gaussian/g16/l1.exe PID=     29943.
  
 Copyright (c) 1988,1990,1992,1993,1995,1998,2003,2009,2016,
            Gaussian, Inc.  All Rights Reserved.
  
 This is part of the Gaussian(R) 16 program.  It is based on
 the Gaussian(R) 09 system (copyright 2009, Gaussian, Inc.),
 the Gaussian(R) 03 system (copyright 2003, Gaussian, Inc.),
 the Gaussian(R) 98 system (copyright 1998, Gaussian, Inc.),
 the Gaussian(R) 94 system (copyright 1995, Gaussian, Inc.),
 the Gaussian 92(TM) system (copyright 1992, Gaussian, Inc.),
 the Gaussian 90(TM) system (copyright 1990, Gaussian, Inc.),
 the Gaussian 88(TM) system (copyright 1988, Gaussian, Inc.),
 the Gaussian 86(TM) system (copyright 1986, Carnegie Mellon
 University), and the Gaussian 82(TM) system (copyright 1983,
 Carnegie Mellon University). Gaussian is a federally registered
 trademark of Gaussian, Inc.
  
 This software contains proprietary and confidential information,
 including trade secrets, belonging to Gaussian, Inc.
  
 This software is provided under written license and may be
 used, copied, transmitted, or stored only in accord with that
 written license.
  
 The following legend is applicable only to US Government
 contracts under FAR:
  
                    RESTRICTED RIGHTS LEGEND
  
 Use, reproduction and disclosure by the US Government is
 subject to restrictions as set forth in subparagraphs (a)
 and (c) of the Commercial Computer Software - Restricted
 Rights clause in FAR 52.227-19.
  
 Gaussian, Inc.
 340 Quinnipiac St., Bldg. 40, Wallingford CT 06492
  
  
 ---------------------------------------------------------------
 Warning -- This program may not be used in any manner that
 competes with the business of Gaussian, Inc. or will provide
 assistance to any competitor of Gaussian, Inc.  The licensee
 of this program is prohibited from giving any competitor of
 Gaussian, Inc. access to this program.  By using this program,
 the user acknowledges that Gaussian, Inc. is engaged in the
 business of creating and licensing software in the field of
 computational chemistry and represents and warrants to the
 licensee that it is not a competitor of Gaussian, Inc. and that
 it will not use this program in any manner prohibited above.
 ---------------------------------------------------------------
  

 Cite this work as:
 Gaussian 16, Revision A.03,
 M. J. Frisch, G. W. Trucks, H. B. Schlegel, G. E. Scuseria, 
 M. A. Robb, J. R. Cheeseman, G. Scalmani, V. Barone, 
 G. A. Petersson, H. Nakatsuji, X. Li, M. Caricato, A. V. Marenich, 
 J. Bloino, B. G. Janesko, R. Gomperts, B. Mennucci, H. P. Hratchian, 
 J. V. Ortiz, A. F. Izmaylov, J. L. Sonnenberg, D. Williams-Young, 
 F. Ding, F. Lipparini, F. Egidi, J. Goings, B. Peng, A. Petrone, 
 T. Henderson, D. Ranasinghe, V. G. Zakrzewski, J. Gao, N. Rega, 
 G. Zheng, W. Liang, M. Hada, M. Ehara, K. Toyota, R. Fukuda, 
 J. Hasegawa, M. Ishida, T. Nakajima, Y. Honda, O. Kitao, H. Nakai, 
 T. Vreven, K. Throssell, J. A. Montgomery, Jr., J. E. Peralta, 
 F. Ogliaro, M. J. Bearpark, J. J. Heyd, E. N. Brothers, K. N. Kudin, 
 V. N. Staroverov, T. A. Keith, R. Kobayashi, J. Normand, 
 K. Raghavachari, A. P. Rendell, J. C. Burant, S. S. Iyengar, 
 J. Tomasi, M. Cossi, J. M. Millam, M. Klene, C. Adamo, R. Cammi, 
 J. W. Ochterski, R. L. Martin, K. Morokuma, O. Farkas, 
 J. B. Foresman, and D. J. Fox, Gaussian, Inc., Wallingford CT, 2016.
 
 ******************************************
 Gaussian 16:  EM64L-G16RevA.03 25-Dec-2016
                 6-Nov-2018 
 ******************************************
 ----------------------------------------------------------------------
 #m062x/6-311+g(2df,2p) Opt=(ModRedun,Loose,maxcycle=1000) Int(Grid=SG1
 ) freq
 ----------------------------------------------------------------------
 1/6=1000,7=-1,18=120,19=15,26=2,38=1/1,3;
 2/9=110,12=2,17=6,18=5,40=1/2;
 3/5=4,6=6,7=214,11=2,25=1,30=1,71=1,74=-55,75=1/1,2,3;
 4//1;
 5/5=2,38=5/2;
 6/7=2,8=2,9=2,10=2,28=1/1;
 7//1,2,3,16;
 1/6=1000,7=-1,18=20,19=15,26=2/3(2);
 2/9=110/2;
 99//99;
 2/9=110/2;
 3/5=4,6=6,7=214,11=2,25=1,30=1,71=1,74=-55,75=1/1,2,3;
 4/5=5,16=3,69=1/1;
 5/5=2,38=5/2;
 7//1,2,3,16;
 1/6=1000,7=-1,18=20,19=15,26=2/3(-5);
 2/9=110/2;
 6/7=2,8=2,9=2,10=2,19=2,28=1/1;
 99/9=1/99;
 -----
 Title
 -----
 Symbolic Z-matrix:
 Charge =  0 Multiplicity = 2
 C                    -0.5067    15.30637   0.76678 
 C                     0.85667   15.22991   0.49509 
 C                     1.43713   14.00191   0.18768 
 C                     0.65522   12.8457   0.15021 
 C                    -1.29263   14.15626   0.73135 
 C                    -0.72034   12.9163   0.42234 
 H                    -2.35443   14.23919   0.94914 
 H                    -0.95943   16.26502   1.00797 
 H                     1.46806   16.12859   0.52363 
 H                     2.50304   13.95122  -0.0227 
 C                    -1.4925    11.74628   0.37937 
 C                     1.2453    11.61924  -0.15897 
 C                     0.47188   10.46224  -0.1995 
 H                     2.31063   11.55973  -0.37023 
 C                    -0.89291   10.52645   0.06828 
 H                     0.93333   9.50812  -0.44139 
 H                    -1.49126   9.61925   0.03246 
 O                    -2.83663   11.7706   0.63087 
 H                    -3.90419   11.54836   0.79474 
 O                    -4.35945   12.34295   0.18119 
 O                    -4.87049   13.11999  -0.95864 
 H                    -4.03303   13.54999  -1.2112 
 
 The following ModRedundant input section has been read:
 

 GradGradGradGradGradGradGradGradGradGradGradGradGradGradGradGradGradGrad
 Berny optimization.
 Initialization pass.
                           ----------------------------
                           !    Initial Parameters    !
                           ! (Angstroms and Degrees)  !
 --------------------------                            --------------------------
 ! Name  Definition              Value          Derivative Info.                !
 --------------------------------------------------------------------------------
 ! R1    R(1,2)                  1.3923         estimate D2E/DX2                !
 ! R2    R(1,5)                  1.3934         estimate D2E/DX2                !
 ! R3    R(1,8)                  1.0873         estimate D2E/DX2                !
 ! R4    R(2,3)                  1.3926         estimate D2E/DX2                !
 ! R5    R(2,9)                  1.0873         estimate D2E/DX2                !
 ! R6    R(3,4)                  1.3963         estimate D2E/DX2                !
 ! R7    R(3,10)                 1.0877         estimate D2E/DX2                !
 ! R8    R(4,6)                  1.404          estimate D2E/DX2                !
 ! R9    R(4,12)                 1.3957         estimate D2E/DX2                !
 ! R10   R(5,6)                  1.4002         estimate D2E/DX2                !
 ! R11   R(5,7)                  1.0871         estimate D2E/DX2                !
 ! R12   R(6,11)                 1.4025         estimate D2E/DX2                !
 ! R13   R(11,15)                1.3944         estimate D2E/DX2                !
 ! R14   R(11,18)                1.3677         estimate D2E/DX2                !
 ! R15   R(12,13)                1.3923         estimate D2E/DX2                !
 ! R16   R(12,14)                1.0877         estimate D2E/DX2                !
 ! R17   R(13,15)                1.3923         estimate D2E/DX2                !
 ! R18   R(13,16)                1.0871         estimate D2E/DX2                !
 ! R19   R(15,17)                1.0873         estimate D2E/DX2                !
 ! R20   R(18,19)                1.1027         estimate D2E/DX2                !
 ! R21   R(19,20)                1.1023         estimate D2E/DX2                !
 ! R22   R(20,21)                1.4711         estimate D2E/DX2                !
 ! R23   R(21,22)                0.9747         estimate D2E/DX2                !
 ! A1    A(2,1,5)              120.1337         estimate D2E/DX2                !
 ! A2    A(2,1,8)              119.9641         estimate D2E/DX2                !
 ! A3    A(5,1,8)              119.9023         estimate D2E/DX2                !
 ! A4    A(1,2,3)              119.9772         estimate D2E/DX2                !
 ! A5    A(1,2,9)              120.0073         estimate D2E/DX2                !
 ! A6    A(3,2,9)              120.0156         estimate D2E/DX2                !
 ! A7    A(2,3,4)              120.1779         estimate D2E/DX2                !
 ! A8    A(2,3,10)             119.4897         estimate D2E/DX2                !
 ! A9    A(4,3,10)             120.3324         estimate D2E/DX2                !
 ! A10   A(3,4,6)              120.1199         estimate D2E/DX2                !
 ! A11   A(3,4,12)             119.7911         estimate D2E/DX2                !
 ! A12   A(6,4,12)             120.089          estimate D2E/DX2                !
 ! A13   A(1,5,6)              120.3982         estimate D2E/DX2                !
 ! A14   A(1,5,7)              118.8715         estimate D2E/DX2                !
 ! A15   A(6,5,7)              120.7302         estimate D2E/DX2                !
 ! A16   A(4,6,5)              119.1931         estimate D2E/DX2                !
 ! A17   A(4,6,11)             119.4404         estimate D2E/DX2                !
 ! A18   A(5,6,11)             121.3664         estimate D2E/DX2                !
 ! A19   A(6,11,15)            119.9935         estimate D2E/DX2                !
 ! A20   A(6,11,18)            121.3733         estimate D2E/DX2                !
 ! A21   A(15,11,18)           118.6324         estimate D2E/DX2                !
 ! A22   A(4,12,13)            120.121          estimate D2E/DX2                !
 ! A23   A(4,12,14)            120.3439         estimate D2E/DX2                !
 ! A24   A(13,12,14)           119.5351         estimate D2E/DX2                !
 ! A25   A(12,13,15)           120.0401         estimate D2E/DX2                !
 ! A26   A(12,13,16)           120.002          estimate D2E/DX2                !
 ! A27   A(15,13,16)           119.9579         estimate D2E/DX2                !
 ! A28   A(11,15,13)           120.316          estimate D2E/DX2                !
 ! A29   A(11,15,17)           120.0405         estimate D2E/DX2                !
 ! A30   A(13,15,17)           119.6435         estimate D2E/DX2                !
 ! A31   A(18,19,20)            99.8954         estimate D2E/DX2                !
 ! A32   A(19,20,21)           162.84           estimate D2E/DX2                !
 ! A33   A(20,21,22)            97.7769         estimate D2E/DX2                !
 ! A34   L(11,18,19,7,-1)      192.7804         estimate D2E/DX2                !
 ! A35   L(11,18,19,7,-2)      180.2137         estimate D2E/DX2                !
 ! D1    D(5,1,2,3)             -0.0237         estimate D2E/DX2                !
 ! D2    D(5,1,2,9)           -179.9801         estimate D2E/DX2                !
 ! D3    D(8,1,2,3)            179.9241         estimate D2E/DX2                !
 ! D4    D(8,1,2,9)             -0.0323         estimate D2E/DX2                !
 ! D5    D(2,1,5,6)             -0.033          estimate D2E/DX2                !
 ! D6    D(2,1,5,7)            179.8577         estimate D2E/DX2                !
 ! D7    D(8,1,5,6)           -179.9808         estimate D2E/DX2                !
 ! D8    D(8,1,5,7)             -0.0901         estimate D2E/DX2                !
 ! D9    D(1,2,3,4)              0.0373         estimate D2E/DX2                !
 ! D10   D(1,2,3,10)          -179.9662         estimate D2E/DX2                !
 ! D11   D(9,2,3,4)            179.9937         estimate D2E/DX2                !
 ! D12   D(9,2,3,10)            -0.0098         estimate D2E/DX2                !
 ! D13   D(2,3,4,6)              0.0055         estimate D2E/DX2                !
 ! D14   D(2,3,4,12)           179.9911         estimate D2E/DX2                !
 ! D15   D(10,3,4,6)          -179.9909         estimate D2E/DX2                !
 ! D16   D(10,3,4,12)           -0.0052         estimate D2E/DX2                !
 ! D17   D(3,4,6,5)             -0.0613         estimate D2E/DX2                !
 ! D18   D(3,4,6,11)           179.9347         estimate D2E/DX2                !
 ! D19   D(12,4,6,5)           179.9531         estimate D2E/DX2                !
 ! D20   D(12,4,6,11)           -0.0508         estimate D2E/DX2                !
 ! D21   D(3,4,12,13)         -179.939          estimate D2E/DX2                !
 ! D22   D(3,4,12,14)            0.0306         estimate D2E/DX2                !
 ! D23   D(6,4,12,13)            0.0466         estimate D2E/DX2                !
 ! D24   D(6,4,12,14)         -179.9838         estimate D2E/DX2                !
 ! D25   D(1,5,6,4)              0.0751         estimate D2E/DX2                !
 ! D26   D(1,5,6,11)          -179.9209         estimate D2E/DX2                !
 ! D27   D(7,5,6,4)           -179.8136         estimate D2E/DX2                !
 ! D28   D(7,5,6,11)             0.1905         estimate D2E/DX2                !
 ! D29   D(4,6,11,15)           -0.0035         estimate D2E/DX2                !
 ! D30   D(4,6,11,18)         -179.6579         estimate D2E/DX2                !
 ! D31   D(5,6,11,15)          179.9925         estimate D2E/DX2                !
 ! D32   D(5,6,11,18)            0.338          estimate D2E/DX2                !
 ! D33   D(6,11,15,13)           0.0625         estimate D2E/DX2                !
 ! D34   D(6,11,15,17)        -179.8562         estimate D2E/DX2                !
 ! D35   D(18,11,15,13)        179.7263         estimate D2E/DX2                !
 ! D36   D(18,11,15,17)         -0.1924         estimate D2E/DX2                !
 ! D37   D(6,11,19,20)          48.67           estimate D2E/DX2                !
 ! D38   D(15,11,19,20)       -131.0682         estimate D2E/DX2                !
 ! D39   D(4,12,13,15)           0.0123         estimate D2E/DX2                !
 ! D40   D(4,12,13,16)         179.9462         estimate D2E/DX2                !
 ! D41   D(14,12,13,15)       -179.9575         estimate D2E/DX2                !
 ! D42   D(14,12,13,16)         -0.0237         estimate D2E/DX2                !
 ! D43   D(12,13,15,11)         -0.0671         estimate D2E/DX2                !
 ! D44   D(12,13,15,17)        179.852          estimate D2E/DX2                !
 ! D45   D(16,13,15,11)        179.9991         estimate D2E/DX2                !
 ! D46   D(16,13,15,17)         -0.0819         estimate D2E/DX2                !
 ! D47   D(18,19,20,21)         80.1977         estimate D2E/DX2                !
 ! D48   D(19,20,21,22)        -85.7011         estimate D2E/DX2                !
 --------------------------------------------------------------------------------
 Trust Radius=3.00D-01 FncErr=1.00D-05 GrdErr=1.00D-04 EigMax=2.50D+02 EigMin=1.00D-04
 Number of steps in this run=    132 maximum allowed number of steps=    132.
 GradGradGradGradGradGradGradGradGradGradGradGradGradGradGradGradGradGrad

                          Input orientation:                          
 ---------------------------------------------------------------------
 Center     Atomic      Atomic             Coordinates (Angstroms)
 Number     Number       Type             X           Y           Z
 ---------------------------------------------------------------------
      1          6           0       -0.506700   15.306370    0.766780
      2          6           0        0.856670   15.229910    0.495090
      3          6           0        1.437130   14.001910    0.187680
      4          6           0        0.655220   12.845700    0.150210
      5          6           0       -1.292630   14.156260    0.731350
      6          6           0       -0.720340   12.916300    0.422340
      7          1           0       -2.354430   14.239190    0.949140
      8          1           0       -0.959430   16.265020    1.007970
      9          1           0        1.468060   16.128590    0.523630
     10          1           0        2.503040   13.951220   -0.022700
     11          6           0       -1.492500   11.746280    0.379370
     12          6           0        1.245300   11.619240   -0.158970
     13          6           0        0.471880   10.462240   -0.199500
     14          1           0        2.310630   11.559730   -0.370230
     15          6           0       -0.892910   10.526450    0.068280
     16          1           0        0.933330    9.508120   -0.441390
     17          1           0       -1.491260    9.619250    0.032460
     18          8           0       -2.836630   11.770600    0.630870
     19          1           0       -3.904190   11.548360    0.794740
     20          8           0       -4.359450   12.342950    0.181190
     21          8           0       -4.870490   13.119990   -0.958640
     22          1           0       -4.033030   13.549990   -1.211200
 ---------------------------------------------------------------------
                    Distance matrix (angstroms):
                    1          2          3          4          5
     1  C    0.000000
     2  C    1.392278   0.000000
     3  C    2.411524   1.392630   0.000000
     4  C    2.790182   2.417433   1.396284   0.000000
     5  C    1.393447   2.414132   2.787650   2.418556   0.000000
     6  C    2.424194   2.800901   2.426580   1.403996   1.400180
     7  H    2.141550   3.390996   3.874539   3.411465   1.087074
     8  H    1.087266   2.152375   3.396769   3.877447   2.152768
     9  H    2.152869   1.087308   2.153274   3.402575   3.399212
    10  H    3.393854   2.147950   1.087655   2.160211   3.875273
    11  C    3.714314   4.203293   3.702343   2.423621   2.443735
    12  C    4.185862   3.689955   2.415384   1.395704   3.697327
    13  C    5.035565   4.833342   3.689293   2.415945   4.198305
    14  H    4.823635   4.041411   2.653019   2.159852   4.575907
    15  C    4.846101   5.036441   4.185949   2.789684   3.711463
    16  H    6.095331   5.798427   4.565489   3.400996   5.285397
    17  H    5.818240   6.099697   5.273260   3.877012   4.594819
    18  O    4.236592   5.062186   4.841507   3.685090   2.843485
    19  H    5.066198   6.025727   5.909156   4.784008   3.691261
    20  O    4.895759   5.970007   6.029306   5.039904   3.605018
    21  O    5.176871   6.274190   6.471314   5.642540   4.090355
    22  H    4.408206   5.444513   5.664252   4.932459   3.413335
                    6          7          8          9         10
     6  C    0.000000
     7  H    2.167442   0.000000
     8  H    3.407940   2.460381   0.000000
     9  H    3.888208   4.285128   2.479094   0.000000
    10  H    3.414572   4.962098   4.290064   2.471963   0.000000
    11  C    1.402506   2.698548   4.593290   5.290592   4.581240
    12  C    2.425701   4.588039   5.273126   4.566158   2.653038
    13  C    2.798300   4.855178   6.097449   5.798518   4.041021
    14  H    3.413975   5.539226   5.893427   4.731109   2.424257
    15  C    2.422090   4.086122   5.815379   6.096351   4.823878
    16  H    3.885402   5.926716   7.165116   6.711767   4.730796
    17  H    3.408352   4.788445   6.738006   7.167310   5.892660
    18  O    2.415532   2.535301   4.885273   6.126494   5.804682
    19  H    3.485232   3.109045   5.564527   7.064919   6.891628
    20  O    3.691884   2.864538   5.256076   6.957601   7.051374
    21  O    4.378623   3.350043   5.390284   7.171193   7.479029
    22  H    3.747523   2.821305   4.662952   6.318291   6.655353
                   11         12         13         14         15
    11  C    0.000000
    12  C    2.793116   0.000000
    13  C    2.417155   1.392290   0.000000
    14  H    3.880786   1.087704   2.148170   0.000000
    15  C    1.394371   2.412006   1.392293   3.394500   0.000000
    16  H    3.401126   2.152653   1.087103   2.472068   2.152188
    17  H    2.155134   3.394903   2.149036   4.287422   1.087344
    18  O    1.367673   4.160398   3.653431   5.247947   2.375387
    19  H    2.455189   5.237541   4.617159   6.323075   3.261879
    20  O    2.935080   5.661509   5.198437   6.738506   3.915268
    21  O    3.884349   6.347804   6.015052   7.372186   4.858205
    22  H    3.498225   5.718020   5.554453   6.701521   4.543040
                   16         17         18         19         20
    16  H    0.000000
    17  H    2.472958   0.000000
    18  O    4.525611   2.606995   0.000000
    19  H    5.393718   3.181944   1.102691   0.000000
    20  O    6.036339   3.958178   1.687832   1.102306   0.000000
    21  O    6.855471   4.965547   2.912728   2.545211   1.471110
    22  H    6.449345   4.843346   2.826804   2.836709   1.871429
                   21         22
    21  O    0.000000
    22  H    0.974693   0.000000
 Stoichiometry    C10H9O3(2)
 Framework group  C1[X(C10H9O3)]
 Deg. of freedom    60
 Full point group                 C1      NOp   1
 Largest Abelian subgroup         C1      NOp   1
 Largest concise Abelian subgroup C1      NOp   1
                         Standard orientation:                         
 ---------------------------------------------------------------------
 Center     Atomic      Atomic             Coordinates (Angstroms)
 Number     Number       Type             X           Y           Z
 ---------------------------------------------------------------------
      1          6           0        1.137817   -2.408758   -0.266061
      2          6           0        2.436334   -2.028300    0.061879
      3          6           0        2.738525   -0.683221    0.259017
      4          6           0        1.742126    0.286325    0.129483
      5          6           0        0.138843   -1.446177   -0.397140
      6          6           0        0.430561   -0.090966   -0.200142
      7          1           0       -0.867374   -1.765862   -0.656095
      8          1           0        0.902397   -3.458841   -0.421138
      9          1           0        3.214316   -2.781090    0.163319
     10          1           0        3.755678   -0.394823    0.514400
     11          6           0       -0.559433    0.894569   -0.325274
     12          6           0        2.053902    1.632048    0.329020
     13          6           0        1.065431    2.604404    0.202851
     14          1           0        3.068676    1.929004    0.584268
     15          6           0       -0.237179    2.235972   -0.122639
     16          1           0        1.310226    3.651931    0.359552
     17          1           0       -1.004616    3.000448   -0.217161
     18          8           0       -1.850906    0.570821   -0.638024
     19          1           0       -2.927092    0.552466   -0.877641
     20          8           0       -3.257727   -0.253850   -0.202649
     21          8           0       -3.683436   -1.002453    0.990050
     22          1           0       -2.797225   -1.224756    1.329515
 ---------------------------------------------------------------------
 Rotational constants (GHZ):           1.1444532           0.6200409           0.4253938
 Standard basis: 6-311+G(2df,2p) (5D, 7F)
 There are   588 symmetry adapted cartesian basis functions of A   symmetry.
 There are   523 symmetry adapted basis functions of A   symmetry.
   523 basis functions,   775 primitive gaussians,   588 cartesian basis functions
    47 alpha electrons       46 beta electrons
       nuclear repulsion energy       746.2347446140 Hartrees.
 NAtoms=   22 NActive=   22 NUniq=   22 SFac= 1.00D+00 NAtFMM=   60 NAOKFM=F Big=F
 Integral buffers will be    131072 words long.
 Raffenetti 2 integral format.
 Two-electron integral symmetry is turned on.
 One-electron integrals computed using PRISM.
 NBasis=   523 RedAO= T EigKep=  1.17D-06  NBF=   523
 NBsUse=   521 1.00D-06 EigRej=  6.76D-07 NBFU=   521
 ExpMin= 4.38D-02 ExpMax= 8.59D+03 ExpMxC= 1.30D+03 IAcc=2 IRadAn=         4 AccDes= 0.00D+00
 Harris functional with IExCor= 1009 and IRadAn=       4 diagonalized for initial guess.
 HarFok:  IExCor= 1009 AccDes= 0.00D+00 IRadAn=         4 IDoV= 1 UseB2=F ITyADJ=14
 ICtDFT=  3500011 ScaDFX=  1.000000  1.000000  1.000000  1.000000
 FoFCou: FMM=F IPFlag=           0 FMFlag=      100000 FMFlg1=           0
         NFxFlg=           0 DoJE=T BraDBF=F KetDBF=T FulRan=T
         wScrn=  0.000000 ICntrl=       500 IOpCl=  0 I1Cent=   200000004 NGrid=           0
         NMat0=    1 NMatS0=      1 NMatT0=    0 NMatD0=    1 NMtDS0=    0 NMtDT0=    0
 Petite list used in FoFCou.
 Initial guess <Sx>= 0.0000 <Sy>= 0.0000 <Sz>= 0.5000 <S**2>= 0.7500 S= 0.5000
 Requested convergence on RMS density matrix=1.00D-08 within 128 cycles.
 Requested convergence on MAX density matrix=1.00D-06.
 Requested convergence on             energy=1.00D-06.
 No special actions if energy rises.
 Restarting incremental Fock formation.
 SCF Done:  E(UM062X) =  -611.803600180     A.U. after   23 cycles
            NFock= 23  Conv=0.35D-08     -V/T= 2.0031
 <Sx>= 0.0000 <Sy>= 0.0000 <Sz>= 0.5000 <S**2>= 0.7642 S= 0.5071
 <L.S>= 0.000000000000E+00
 Annihilation of the first spin contaminant:
 S**2 before annihilation     0.7642,   after     0.7502

 **********************************************************************

            Population analysis using the SCF density.

 **********************************************************************

 Orbital symmetries:
 Alpha Orbitals:
       Occupied  (A) (A) (A) (A) (A) (A) (A) (A) (A) (A) (A) (A)
                 (A) (A) (A) (A) (A) (A) (A) (A) (A) (A) (A) (A)
                 (A) (A) (A) (A) (A) (A) (A) (A) (A) (A) (A) (A)
                 (A) (A) (A) (A) (A) (A) (A) (A) (A) (A) (A)
       Virtual   (A) (A) (A) (A) (A) (A) (A) (A) (A) (A) (A) (A)
                 (A) (A) (A) (A) (A) (A) (A) (A) (A) (A) (A) (A)
                 (A) (A) (A) (A) (A) (A) (A) (A) (A) (A) (A) (A)
                 (A) (A) (A) (A) (A) (A) (A) (A) (A) (A) (A) (A)
                 (A) (A) (A) (A) (A) (A) (A) (A) (A) (A) (A) (A)
                 (A) (A) (A) (A) (A) (A) (A) (A) (A) (A) (A) (A)
                 (A) (A) (A) (A) (A) (A) (A) (A) (A) (A) (A) (A)
                 (A) (A) (A) (A) (A) (A) (A) (A) (A) (A) (A) (A)
                 (A) (A) (A) (A) (A) (A) (A) (A) (A) (A) (A) (A)
                 (A) (A) (A) (A) (A) (A) (A) (A) (A) (A) (A) (A)
                 (A) (A) (A) (A) (A) (A) (A) (A) (A) (A) (A) (A)
                 (A) (A) (A) (A) (A) (A) (A) (A) (A) (A) (A) (A)
                 (A) (A) (A) (A) (A) (A) (A) (A) (A) (A) (A) (A)
                 (A) (A) (A) (A) (A) (A) (A) (A) (A) (A) (A) (A)
                 (A) (A) (A) (A) (A) (A) (A) (A) (A) (A) (A) (A)
                 (A) (A) (A) (A) (A) (A) (A) (A) (A) (A) (A) (A)
                 (A) (A) (A) (A) (A) (A) (A) (A) (A) (A) (A) (A)
                 (A) (A) (A) (A) (A) (A) (A) (A) (A) (A) (A) (A)
                 (A) (A) (A) (A) (A) (A) (A) (A) (A) (A) (A) (A)
                 (A) (A) (A) (A) (A) (A) (A) (A) (A) (A) (A) (A)
                 (A) (A) (A) (A) (A) (A) (A) (A) (A) (A) (A) (A)
                 (A) (A) (A) (A) (A) (A) (A) (A) (A) (A) (A) (A)
                 (A) (A) (A) (A) (A) (A) (A) (A) (A) (A) (A) (A)
                 (A) (A) (A) (A) (A) (A) (A) (A) (A) (A) (A) (A)
                 (A) (A) (A) (A) (A) (A) (A) (A) (A) (A) (A) (A)
                 (A) (A) (A) (A) (A) (A) (A) (A) (A) (A) (A) (A)
                 (A) (A) (A) (A) (A) (A) (A) (A) (A) (A) (A) (A)
                 (A) (A) (A) (A) (A) (A) (A) (A) (A) (A) (A) (A)
                 (A) (A) (A) (A) (A) (A) (A) (A) (A) (A) (A) (A)
                 (A) (A) (A) (A) (A) (A) (A) (A) (A) (A) (A) (A)
                 (A) (A) (A) (A) (A) (A) (A) (A) (A) (A) (A) (A)
                 (A) (A) (A) (A) (A) (A) (A) (A) (A) (A) (A) (A)
                 (A) (A) (A) (A) (A) (A) (A) (A) (A) (A) (A) (A)
                 (A) (A) (A) (A) (A) (A) (A) (A) (A) (A) (A) (A)
                 (A) (A) (A) (A) (A) (A) (A) (A) (A) (A) (A) (A)
                 (A) (A) (A) (A) (A) (A) (A) (A) (A) (A) (A) (A)
                 (A) (A) (A) (A) (A) (A) (A) (A) (A) (A) (A) (A)
                 (A) (A) (A) (A) (A) (A) (A) (A) (A) (A) (A) (A)
                 (A) (A) (A) (A) (A) (A) (A) (A) (A) (A) (A) (A)
                 (A) (A) (A) (A) (A) (A)
 Beta  Orbitals:
       Occupied  (A) (A) (A) (A) (A) (A) (A) (A) (A) (A) (A) (A)
                 (A) (A) (A) (A) (A) (A) (A) (A) (A) (A) (A) (A)
                 (A) (A) (A) (A) (A) (A) (A) (A) (A) (A) (A) (A)
                 (A) (A) (A) (A) (A) (A) (A) (A) (A) (A)
       Virtual   (A) (A) (A) (A) (A) (A) (A) (A) (A) (A) (A) (A)
                 (A) (A) (A) (A) (A) (A) (A) (A) (A) (A) (A) (A)
                 (A) (A) (A) (A) (A) (A) (A) (A) (A) (A) (A) (A)
                 (A) (A) (A) (A) (A) (A) (A) (A) (A) (A) (A) (A)
                 (A) (A) (A) (A) (A) (A) (A) (A) (A) (A) (A) (A)
                 (A) (A) (A) (A) (A) (A) (A) (A) (A) (A) (A) (A)
                 (A) (A) (A) (A) (A) (A) (A) (A) (A) (A) (A) (A)
                 (A) (A) (A) (A) (A) (A) (A) (A) (A) (A) (A) (A)
                 (A) (A) (A) (A) (A) (A) (A) (A) (A) (A) (A) (A)
                 (A) (A) (A) (A) (A) (A) (A) (A) (A) (A) (A) (A)
                 (A) (A) (A) (A) (A) (A) (A) (A) (A) (A) (A) (A)
                 (A) (A) (A) (A) (A) (A) (A) (A) (A) (A) (A) (A)
                 (A) (A) (A) (A) (A) (A) (A) (A) (A) (A) (A) (A)
                 (A) (A) (A) (A) (A) (A) (A) (A) (A) (A) (A) (A)
                 (A) (A) (A) (A) (A) (A) (A) (A) (A) (A) (A) (A)
                 (A) (A) (A) (A) (A) (A) (A) (A) (A) (A) (A) (A)
                 (A) (A) (A) (A) (A) (A) (A) (A) (A) (A) (A) (A)
                 (A) (A) (A) (A) (A) (A) (A) (A) (A) (A) (A) (A)
                 (A) (A) (A) (A) (A) (A) (A) (A) (A) (A) (A) (A)
                 (A) (A) (A) (A) (A) (A) (A) (A) (A) (A) (A) (A)
                 (A) (A) (A) (A) (A) (A) (A) (A) (A) (A) (A) (A)
                 (A) (A) (A) (A) (A) (A) (A) (A) (A) (A) (A) (A)
                 (A) (A) (A) (A) (A) (A) (A) (A) (A) (A) (A) (A)
                 (A) (A) (A) (A) (A) (A) (A) (A) (A) (A) (A) (A)
                 (A) (A) (A) (A) (A) (A) (A) (A) (A) (A) (A) (A)
                 (A) (A) (A) (A) (A) (A) (A) (A) (A) (A) (A) (A)
                 (A) (A) (A) (A) (A) (A) (A) (A) (A) (A) (A) (A)
                 (A) (A) (A) (A) (A) (A) (A) (A) (A) (A) (A) (A)
                 (A) (A) (A) (A) (A) (A) (A) (A) (A) (A) (A) (A)
                 (A) (A) (A) (A) (A) (A) (A) (A) (A) (A) (A) (A)
                 (A) (A) (A) (A) (A) (A) (A) (A) (A) (A) (A) (A)
                 (A) (A) (A) (A) (A) (A) (A) (A) (A) (A) (A) (A)
                 (A) (A) (A) (A) (A) (A) (A) (A) (A) (A) (A) (A)
                 (A) (A) (A) (A) (A) (A) (A) (A) (A) (A) (A) (A)
                 (A) (A) (A) (A) (A) (A) (A) (A) (A) (A) (A) (A)
                 (A) (A) (A) (A) (A) (A) (A) (A) (A) (A) (A) (A)
                 (A) (A) (A) (A) (A) (A) (A) (A) (A) (A) (A) (A)
                 (A) (A) (A) (A) (A) (A) (A) (A) (A) (A) (A) (A)
                 (A) (A) (A) (A) (A) (A) (A) (A) (A) (A) (A) (A)
                 (A) (A) (A) (A) (A) (A) (A)
 The electronic state is 2-A.
 Alpha  occ. eigenvalues --  -19.70609 -19.69386 -19.65997 -10.62346 -10.56091
 Alpha  occ. eigenvalues --  -10.55949 -10.55513 -10.55485 -10.55438 -10.55355
 Alpha  occ. eigenvalues --  -10.55313 -10.55285 -10.55201  -1.27346  -1.18317
 Alpha  occ. eigenvalues --   -1.03704  -0.99242  -0.93417  -0.88019  -0.85551
 Alpha  occ. eigenvalues --   -0.81845  -0.74454  -0.71785  -0.71145  -0.65930
 Alpha  occ. eigenvalues --   -0.60648  -0.59393  -0.58474  -0.57600  -0.54124
 Alpha  occ. eigenvalues --   -0.53553  -0.51697  -0.50805  -0.50416  -0.49715
 Alpha  occ. eigenvalues --   -0.47601  -0.47020  -0.45490  -0.44030  -0.41420
 Alpha  occ. eigenvalues --   -0.40641  -0.40077  -0.36812  -0.34777  -0.32832
 Alpha  occ. eigenvalues --   -0.31537  -0.25905
 Alpha virt. eigenvalues --   -0.02890   0.00091   0.00179   0.00837   0.01593
 Alpha virt. eigenvalues --    0.01882   0.03162   0.03633   0.03827   0.05462
 Alpha virt. eigenvalues --    0.05821   0.06105   0.06610   0.06996   0.08114
 Alpha virt. eigenvalues --    0.09381   0.09829   0.10194   0.10411   0.10999
 Alpha virt. eigenvalues --    0.11965   0.13210   0.13667   0.14311   0.14686
 Alpha virt. eigenvalues --    0.14874   0.15479   0.15916   0.15994   0.16727
 Alpha virt. eigenvalues --    0.17737   0.18376   0.18443   0.18894   0.19392
 Alpha virt. eigenvalues --    0.19765   0.20030   0.20572   0.21018   0.21830
 Alpha virt. eigenvalues --    0.22068   0.22727   0.23150   0.23957   0.24630
 Alpha virt. eigenvalues --    0.25013   0.25224   0.25366   0.25926   0.26278
 Alpha virt. eigenvalues --    0.26846   0.27282   0.28049   0.28548   0.29174
 Alpha virt. eigenvalues --    0.29774   0.30181   0.30979   0.31770   0.32032
 Alpha virt. eigenvalues --    0.33424   0.33674   0.34436   0.35175   0.35788
 Alpha virt. eigenvalues --    0.36287   0.37166   0.38042   0.39342   0.41216
 Alpha virt. eigenvalues --    0.43045   0.44108   0.44436   0.46917   0.48833
 Alpha virt. eigenvalues --    0.51079   0.51978   0.52566   0.52725   0.53821
 Alpha virt. eigenvalues --    0.54371   0.55224   0.55630   0.55708   0.57137
 Alpha virt. eigenvalues --    0.57929   0.58139   0.59253   0.59661   0.60492
 Alpha virt. eigenvalues --    0.61306   0.61609   0.63023   0.63630   0.65005
 Alpha virt. eigenvalues --    0.65901   0.66502   0.67010   0.67681   0.67857
 Alpha virt. eigenvalues --    0.68206   0.68582   0.68867   0.69269   0.70590
 Alpha virt. eigenvalues --    0.71810   0.72747   0.73041   0.73413   0.74107
 Alpha virt. eigenvalues --    0.74627   0.75021   0.75711   0.76998   0.77705
 Alpha virt. eigenvalues --    0.77916   0.78046   0.79768   0.80785   0.81149
 Alpha virt. eigenvalues --    0.82101   0.82772   0.85699   0.86259   0.86486
 Alpha virt. eigenvalues --    0.87796   0.88255   0.89432   0.90362   0.91279
 Alpha virt. eigenvalues --    0.91923   0.93999   0.96948   0.98872   0.99783
 Alpha virt. eigenvalues --    1.01325   1.01949   1.02651   1.03802   1.04718
 Alpha virt. eigenvalues --    1.05207   1.06218   1.06525   1.08493   1.08983
 Alpha virt. eigenvalues --    1.10691   1.12239   1.12705   1.13925   1.14161
 Alpha virt. eigenvalues --    1.15115   1.16236   1.17832   1.18541   1.19365
 Alpha virt. eigenvalues --    1.20263   1.20961   1.21869   1.22747   1.24334
 Alpha virt. eigenvalues --    1.24784   1.26955   1.28109   1.30103   1.30925
 Alpha virt. eigenvalues --    1.31760   1.33118   1.33381   1.34144   1.34336
 Alpha virt. eigenvalues --    1.34735   1.35478   1.35693   1.36862   1.37601
 Alpha virt. eigenvalues --    1.38290   1.39136   1.40223   1.40995   1.41613
 Alpha virt. eigenvalues --    1.43179   1.43558   1.44788   1.46715   1.47964
 Alpha virt. eigenvalues --    1.50028   1.50124   1.50390   1.52311   1.53148
 Alpha virt. eigenvalues --    1.55167   1.60566   1.61808   1.64859   1.66321
 Alpha virt. eigenvalues --    1.67926   1.68520   1.70166   1.70275   1.72230
 Alpha virt. eigenvalues --    1.73164   1.74684   1.75772   1.76774   1.76942
 Alpha virt. eigenvalues --    1.79969   1.81860   1.83624   1.85405   1.88266
 Alpha virt. eigenvalues --    1.89484   1.90923   1.93780   1.99035   2.00826
 Alpha virt. eigenvalues --    2.02370   2.03381   2.04106   2.06002   2.08172
 Alpha virt. eigenvalues --    2.11805   2.15065   2.23178   2.26955   2.30850
 Alpha virt. eigenvalues --    2.34689   2.45755   2.47387   2.50464   2.53146
 Alpha virt. eigenvalues --    2.54653   2.55830   2.57756   2.61765   2.64291
 Alpha virt. eigenvalues --    2.65115   2.67020   2.69041   2.69923   2.72419
 Alpha virt. eigenvalues --    2.73961   2.74348   2.74778   2.75653   2.76542
 Alpha virt. eigenvalues --    2.77117   2.77542   2.78821   2.79863   2.81626
 Alpha virt. eigenvalues --    2.81813   2.82850   2.82858   2.83816   2.84891
 Alpha virt. eigenvalues --    2.85117   2.86189   2.86768   2.87594   2.87673
 Alpha virt. eigenvalues --    2.87807   2.89704   2.90796   2.91292   2.92097
 Alpha virt. eigenvalues --    2.92347   2.93769   2.98347   3.00206   3.01428
 Alpha virt. eigenvalues --    3.02882   3.05710   3.07691   3.09444   3.10068
 Alpha virt. eigenvalues --    3.11788   3.12486   3.12881   3.13207   3.13747
 Alpha virt. eigenvalues --    3.14870   3.15172   3.16234   3.17051   3.17999
 Alpha virt. eigenvalues --    3.18814   3.21453   3.22213   3.23814   3.24207
 Alpha virt. eigenvalues --    3.24702   3.26980   3.27279   3.28992   3.30929
 Alpha virt. eigenvalues --    3.31201   3.33079   3.34939   3.35608   3.36864
 Alpha virt. eigenvalues --    3.38118   3.39102   3.40263   3.41584   3.42537
 Alpha virt. eigenvalues --    3.42789   3.43790   3.44695   3.47064   3.48153
 Alpha virt. eigenvalues --    3.48895   3.49192   3.50997   3.53469   3.54064
 Alpha virt. eigenvalues --    3.54789   3.55880   3.57041   3.60856   3.63645
 Alpha virt. eigenvalues --    3.64020   3.64413   3.67152   3.67591   3.69768
 Alpha virt. eigenvalues --    3.70517   3.72939   3.74160   3.74700   3.75914
 Alpha virt. eigenvalues --    3.76519   3.77563   3.78527   3.78797   3.79920
 Alpha virt. eigenvalues --    3.81401   3.84228   3.85327   3.87216   3.88972
 Alpha virt. eigenvalues --    3.89382   3.90133   3.92933   3.94884   3.97108
 Alpha virt. eigenvalues --    3.98376   4.01227   4.02166   4.04401   4.05185
 Alpha virt. eigenvalues --    4.07309   4.08675   4.08987   4.11062   4.13892
 Alpha virt. eigenvalues --    4.15396   4.18657   4.20025   4.20475   4.22056
 Alpha virt. eigenvalues --    4.23462   4.26634   4.27612   4.31361   4.34058
 Alpha virt. eigenvalues --    4.34400   4.36059   4.37335   4.37901   4.38218
 Alpha virt. eigenvalues --    4.40835   4.42191   4.43346   4.43549   4.44487
 Alpha virt. eigenvalues --    4.47855   4.48220   4.48827   4.51202   4.51304
 Alpha virt. eigenvalues --    4.54575   4.56287   4.57244   4.58194   4.60643
 Alpha virt. eigenvalues --    4.63597   4.65310   4.70268   4.71413   4.72845
 Alpha virt. eigenvalues --    4.75364   4.76229   4.81072   4.83393   4.88100
 Alpha virt. eigenvalues --    4.90656   4.91525   4.95176   4.96203   4.98179
 Alpha virt. eigenvalues --    5.00128   5.05039   5.07140   5.07531   5.08546
 Alpha virt. eigenvalues --    5.11707   5.12139   5.12632   5.14582   5.16338
 Alpha virt. eigenvalues --    5.17795   5.18905   5.20736   5.23048   5.24701
 Alpha virt. eigenvalues --    5.26670   5.29410   5.33844   5.33886   5.38116
 Alpha virt. eigenvalues --    5.45170   5.47653   5.47980   5.50129   5.54671
 Alpha virt. eigenvalues --    5.56631   5.57893   5.62004   5.69916   5.71457
 Alpha virt. eigenvalues --    5.72469   5.75764   5.80700   5.82242   5.86795
 Alpha virt. eigenvalues --    5.93328   6.02537   6.09005   6.14424   6.18410
 Alpha virt. eigenvalues --    6.39466   6.46361   6.69564   6.73280   6.80321
 Alpha virt. eigenvalues --    6.81263   6.88077   6.89816   6.93812   6.98175
 Alpha virt. eigenvalues --    7.08678   7.10255   7.23638   7.25208   7.31215
 Alpha virt. eigenvalues --    7.38971   7.45853   7.72880   7.78421   7.99716
 Alpha virt. eigenvalues --    8.26371  23.89881  24.21928  24.58335  24.60759
 Alpha virt. eigenvalues --   24.64832  24.68818  24.78222  24.86330  25.09699
 Alpha virt. eigenvalues --   25.27088  49.99187  50.02346  50.23595
  Beta  occ. eigenvalues --  -19.70522 -19.68018 -19.65032 -10.62381 -10.56071
  Beta  occ. eigenvalues --  -10.55963 -10.55534 -10.55473 -10.55448 -10.55354
  Beta  occ. eigenvalues --  -10.55284 -10.55243 -10.55146  -1.24615  -1.16411
  Beta  occ. eigenvalues --   -1.01760  -0.98485  -0.93206  -0.87691  -0.85480
  Beta  occ. eigenvalues --   -0.81419  -0.73509  -0.71358  -0.71043  -0.65509
  Beta  occ. eigenvalues --   -0.60254  -0.58369  -0.57977  -0.56742  -0.53332
  Beta  occ. eigenvalues --   -0.51456  -0.51091  -0.49801  -0.49022  -0.48891
  Beta  occ. eigenvalues --   -0.47365  -0.45325  -0.44453  -0.42829  -0.41193
  Beta  occ. eigenvalues --   -0.39850  -0.39689  -0.34538  -0.33041  -0.31324
  Beta  occ. eigenvalues --   -0.26617
  Beta virt. eigenvalues --   -0.07744  -0.01880   0.00354   0.00595   0.01196
  Beta virt. eigenvalues --    0.01638   0.02159   0.03338   0.03699   0.04264
  Beta virt. eigenvalues --    0.05544   0.05934   0.06194   0.06679   0.07168
  Beta virt. eigenvalues --    0.08183   0.09448   0.09898   0.10302   0.10432
  Beta virt. eigenvalues --    0.11069   0.12028   0.13335   0.13772   0.14371
  Beta virt. eigenvalues --    0.14755   0.14987   0.15488   0.15927   0.16096
  Beta virt. eigenvalues --    0.16758   0.17856   0.18422   0.18525   0.18953
  Beta virt. eigenvalues --    0.19476   0.19816   0.20208   0.20672   0.21077
  Beta virt. eigenvalues --    0.21822   0.22159   0.22868   0.23238   0.24050
  Beta virt. eigenvalues --    0.24704   0.25029   0.25267   0.25433   0.26034
  Beta virt. eigenvalues --    0.26432   0.26901   0.27352   0.28169   0.28710
  Beta virt. eigenvalues --    0.29283   0.29807   0.30368   0.31126   0.32072
  Beta virt. eigenvalues --    0.32297   0.33481   0.33753   0.34512   0.35267
  Beta virt. eigenvalues --    0.35854   0.36357   0.37282   0.38288   0.39561
  Beta virt. eigenvalues --    0.41328   0.43230   0.44313   0.44705   0.47086
  Beta virt. eigenvalues --    0.48903   0.51164   0.52031   0.52636   0.52814
  Beta virt. eigenvalues --    0.53899   0.54431   0.55280   0.55679   0.55794
  Beta virt. eigenvalues --    0.57256   0.58139   0.58170   0.59345   0.59912
  Beta virt. eigenvalues --    0.60579   0.61437   0.61697   0.63064   0.63703
  Beta virt. eigenvalues --    0.65078   0.65997   0.66700   0.67107   0.67744
  Beta virt. eigenvalues --    0.67943   0.68237   0.68686   0.68942   0.69319
  Beta virt. eigenvalues --    0.70676   0.71955   0.72770   0.73080   0.73459
  Beta virt. eigenvalues --    0.74151   0.74682   0.75044   0.75738   0.77126
  Beta virt. eigenvalues --    0.77783   0.78077   0.78284   0.79843   0.80890
  Beta virt. eigenvalues --    0.81205   0.82181   0.82871   0.85788   0.86341
  Beta virt. eigenvalues --    0.86554   0.87960   0.88322   0.89563   0.90492
  Beta virt. eigenvalues --    0.91332   0.92037   0.94076   0.97232   0.98896
  Beta virt. eigenvalues --    0.99982   1.01433   1.02038   1.02722   1.03942
  Beta virt. eigenvalues --    1.04775   1.05407   1.06265   1.06597   1.08643
  Beta virt. eigenvalues --    1.09305   1.10844   1.12281   1.12735   1.13938
  Beta virt. eigenvalues --    1.14361   1.15427   1.16343   1.18051   1.18786
  Beta virt. eigenvalues --    1.19649   1.20786   1.21671   1.22192   1.23173
  Beta virt. eigenvalues --    1.24880   1.25636   1.27025   1.28242   1.30435
  Beta virt. eigenvalues --    1.31020   1.31874   1.33551   1.33662   1.34273
  Beta virt. eigenvalues --    1.34507   1.34985   1.35549   1.35806   1.37071
  Beta virt. eigenvalues --    1.37734   1.38487   1.39175   1.40472   1.41148
  Beta virt. eigenvalues --    1.41806   1.43444   1.43692   1.45126   1.46811
  Beta virt. eigenvalues --    1.48062   1.50134   1.50226   1.50629   1.52421
  Beta virt. eigenvalues --    1.53236   1.55750   1.61176   1.62344   1.65129
  Beta virt. eigenvalues --    1.66663   1.68413   1.68965   1.70299   1.70371
  Beta virt. eigenvalues --    1.72478   1.73229   1.74816   1.75899   1.77009
  Beta virt. eigenvalues --    1.77462   1.80145   1.82020   1.83898   1.85722
  Beta virt. eigenvalues --    1.88446   1.89859   1.91003   1.93982   1.99568
  Beta virt. eigenvalues --    2.01060   2.02516   2.03642   2.04446   2.06067
  Beta virt. eigenvalues --    2.08568   2.12107   2.15632   2.23685   2.27190
  Beta virt. eigenvalues --    2.30937   2.35187   2.45892   2.47588   2.50660
  Beta virt. eigenvalues --    2.53360   2.54677   2.56245   2.57954   2.61963
  Beta virt. eigenvalues --    2.64458   2.65172   2.67268   2.69253   2.69982
  Beta virt. eigenvalues --    2.72787   2.74400   2.74463   2.74833   2.75741
  Beta virt. eigenvalues --    2.76630   2.77321   2.77777   2.78943   2.79941
  Beta virt. eigenvalues --    2.81748   2.82021   2.82945   2.82991   2.83912
  Beta virt. eigenvalues --    2.84996   2.85190   2.86381   2.86761   2.87700
  Beta virt. eigenvalues --    2.87847   2.87888   2.89900   2.90948   2.91346
  Beta virt. eigenvalues --    2.92177   2.92497   2.93851   2.98430   3.00311
  Beta virt. eigenvalues --    3.01624   3.03086   3.05819   3.07772   3.09501
  Beta virt. eigenvalues --    3.10101   3.11910   3.12574   3.13096   3.13423
  Beta virt. eigenvalues --    3.13873   3.14915   3.15333   3.16309   3.17251
  Beta virt. eigenvalues --    3.18205   3.19015   3.21533   3.22307   3.23913
  Beta virt. eigenvalues --    3.24242   3.24848   3.27136   3.27454   3.29106
  Beta virt. eigenvalues --    3.31136   3.31515   3.33112   3.35027   3.35736
  Beta virt. eigenvalues --    3.37057   3.38302   3.39201   3.40383   3.41631
  Beta virt. eigenvalues --    3.42747   3.42823   3.43888   3.44962   3.47192
  Beta virt. eigenvalues --    3.48217   3.49094   3.49355   3.51120   3.53561
  Beta virt. eigenvalues --    3.54266   3.54948   3.56045   3.57194   3.60924
  Beta virt. eigenvalues --    3.63649   3.63976   3.64741   3.67230   3.67643
  Beta virt. eigenvalues --    3.69700   3.70670   3.73223   3.74230   3.74864
  Beta virt. eigenvalues --    3.75994   3.76694   3.77681   3.78664   3.78943
  Beta virt. eigenvalues --    3.80038   3.81468   3.84351   3.85420   3.87261
  Beta virt. eigenvalues --    3.89050   3.89575   3.90324   3.93053   3.95036
  Beta virt. eigenvalues --    3.97228   3.98432   4.01252   4.02224   4.04494
  Beta virt. eigenvalues --    4.05184   4.07329   4.08773   4.09076   4.11158
  Beta virt. eigenvalues --    4.13973   4.15433   4.18708   4.20137   4.20652
  Beta virt. eigenvalues --    4.22450   4.23527   4.26744   4.27705   4.31452
  Beta virt. eigenvalues --    4.34354   4.34582   4.36113   4.37550   4.38039
  Beta virt. eigenvalues --    4.38476   4.41004   4.42372   4.43549   4.43742
  Beta virt. eigenvalues --    4.44681   4.48031   4.48470   4.49029   4.51378
  Beta virt. eigenvalues --    4.51459   4.54811   4.56639   4.57435   4.58318
  Beta virt. eigenvalues --    4.60972   4.63880   4.65840   4.70390   4.71850
  Beta virt. eigenvalues --    4.73362   4.75588   4.76560   4.81593   4.83986
  Beta virt. eigenvalues --    4.88630   4.91144   4.91942   4.95383   4.97390
  Beta virt. eigenvalues --    4.98998   5.01400   5.05517   5.07638   5.07952
  Beta virt. eigenvalues --    5.08960   5.12769   5.13255   5.15305   5.15682
  Beta virt. eigenvalues --    5.17269   5.18468   5.19323   5.21437   5.23945
  Beta virt. eigenvalues --    5.25907   5.27105   5.31362   5.34454   5.34652
  Beta virt. eigenvalues --    5.38628   5.45818   5.47833   5.48654   5.50532
  Beta virt. eigenvalues --    5.55065   5.56892   5.58241   5.62787   5.70549
  Beta virt. eigenvalues --    5.71881   5.72598   5.76034   5.80963   5.82950
  Beta virt. eigenvalues --    5.87196   5.94663   6.02675   6.09244   6.15363
  Beta virt. eigenvalues --    6.18825   6.39959   6.46497   6.70697   6.78216
  Beta virt. eigenvalues --    6.82120   6.85623   6.88891   6.91454   6.96959
  Beta virt. eigenvalues --    7.02445   7.10500   7.11686   7.24366   7.26172
  Beta virt. eigenvalues --    7.33420   7.39697   7.48519   7.74941   7.83346
  Beta virt. eigenvalues --    8.01116   8.28894  23.89905  24.21962  24.58342
  Beta virt. eigenvalues --   24.60803  24.64986  24.68788  24.78261  24.86354
  Beta virt. eigenvalues --   25.09744  25.27138  49.99096  50.01848  50.22910
          Condensed to atoms (all electrons):
               1          2          3          4          5          6
     1  C    8.969576  -0.602303   0.676852  -2.919170  -0.891553   1.890059
     2  C   -0.602303   7.079524  -1.168262   3.079136   0.238484  -1.775338
     3  C    0.676852  -1.168262  11.215459  -8.560269  -0.470289   2.891297
     4  C   -2.919170   3.079136  -8.560269  29.479133   1.311492 -12.514344
     5  C   -0.891553   0.238484  -0.470289   1.311492   8.679229  -2.031811
     6  C    1.890059  -1.775338   2.891297 -12.514344  -2.031811  23.914264
     7  H    0.016853  -0.020814   0.014081  -0.126228   0.357825   0.050622
     8  H    0.351233   0.014887   0.008795  -0.005015  -0.020502   0.020425
     9  H    0.018061   0.353108  -0.006056  -0.001915   0.010250  -0.005300
    10  H   -0.008891   0.027686   0.359280  -0.004959  -0.000219  -0.065226
    11  C   -1.256540   0.155331   0.408026  -0.569100   0.005233  -2.270320
    12  C    0.449983  -0.754486   0.383619  -1.868891   0.208212  -0.809469
    13  C    0.008647  -0.201665  -1.341995   1.889094   0.165401  -1.055323
    14  H   -0.002027   0.015465   0.041778  -0.036401   0.006850  -0.035945
    15  C   -0.434865  -0.088572   1.580242  -3.250266  -1.522790  -2.709831
    16  H   -0.000692   0.000040   0.013361   0.022191   0.004173  -0.021278
    17  H   -0.000082  -0.000774   0.002739  -0.012447   0.000167   0.036545
    18  O    0.066720  -0.017573   0.053187  -0.261636   0.035984  -0.068897
    19  H    0.007325  -0.000824   0.006042  -0.021367   0.028110  -0.058848
    20  O   -0.041833   0.002101  -0.002362   0.056232  -0.003212  -0.208605
    21  O    0.030824   0.000873  -0.002892   0.006607   0.023179   0.040844
    22  H   -0.005236   0.000920  -0.001360   0.010014   0.004510   0.004286
               7          8          9         10         11         12
     1  C    0.016853   0.351233   0.018061  -0.008891  -1.256540   0.449983
     2  C   -0.020814   0.014887   0.353108   0.027686   0.155331  -0.754486
     3  C    0.014081   0.008795  -0.006056   0.359280   0.408026   0.383619
     4  C   -0.126228  -0.005015  -0.001915  -0.004959  -0.569100  -1.868891
     5  C    0.357825  -0.020502   0.010250  -0.000219   0.005233   0.208212
     6  C    0.050622   0.020425  -0.005300  -0.065226  -2.270320  -0.809469
     7  H    0.448415  -0.006030  -0.000064   0.000027   0.048351   0.003765
     8  H   -0.006030   0.480202  -0.006706  -0.000095   0.007422   0.003644
     9  H   -0.000064  -0.006706   0.484860  -0.006611   0.007560   0.003934
    10  H    0.000027  -0.000095  -0.006611   0.479320   0.004091   0.040124
    11  C    0.048351   0.007422   0.007560   0.004091  11.543094   0.063352
    12  C    0.003765   0.003644   0.003934   0.040124   0.063352   7.909833
    13  C   -0.004393  -0.000805  -0.000602   0.015846  -0.460673   0.262445
    14  H    0.000013  -0.000002  -0.000015   0.002403  -0.013909   0.372575
    15  C    0.026488   0.000455   0.000496  -0.001399  -1.530847   0.102396
    16  H   -0.000002   0.000000  -0.000001  -0.000017  -0.003616  -0.008631
    17  H    0.000007  -0.000001   0.000000  -0.000001  -0.062929   0.006805
    18  O    0.002278   0.000044   0.000007  -0.000002   0.263810  -0.019760
    19  H   -0.000296  -0.000000   0.000000  -0.000000  -0.030684  -0.004704
    20  O    0.004934   0.000020  -0.000002   0.000002   0.238465  -0.003019
    21  O   -0.001644   0.000004   0.000000  -0.000000  -0.020181   0.001739
    22  H    0.000747  -0.000001  -0.000000   0.000000   0.001286  -0.000791
              13         14         15         16         17         18
     1  C    0.008647  -0.002027  -0.434865  -0.000692  -0.000082   0.066720
     2  C   -0.201665   0.015465  -0.088572   0.000040  -0.000774  -0.017573
     3  C   -1.341995   0.041778   1.580242   0.013361   0.002739   0.053187
     4  C    1.889094  -0.036401  -3.250266   0.022191  -0.012447  -0.261636
     5  C    0.165401   0.006850  -1.522790   0.004173   0.000167   0.035984
     6  C   -1.055323  -0.035945  -2.709831  -0.021278   0.036545  -0.068897
     7  H   -0.004393   0.000013   0.026488  -0.000002   0.000007   0.002278
     8  H   -0.000805  -0.000002   0.000455   0.000000  -0.000001   0.000044
     9  H   -0.000602  -0.000015   0.000496  -0.000001   0.000000   0.000007
    10  H    0.015846   0.002403  -0.001399  -0.000017  -0.000001  -0.000002
    11  C   -0.460673  -0.013909  -1.530847  -0.003616  -0.062929   0.263810
    12  C    0.262445   0.372575   0.102396  -0.008631   0.006805  -0.019760
    13  C    7.139816   0.013974  -0.326802   0.341359   0.021485  -0.053189
    14  H    0.013974   0.480156   0.004926  -0.006427  -0.000078   0.000028
    15  C   -0.326802   0.004926  13.862908   0.031227   0.397059  -0.176042
    16  H    0.341359  -0.006427   0.031227   0.483746  -0.006856   0.000135
    17  H    0.021485  -0.000078   0.397059  -0.006856   0.463859  -0.004625
    18  O   -0.053189   0.000028  -0.176042   0.000135  -0.004625   8.502927
    19  H   -0.006036  -0.000001   0.057037   0.000023  -0.000119   0.194281
    20  O    0.011934   0.000002  -0.020989  -0.000009  -0.000760  -0.311579
    21  O   -0.002783  -0.000001  -0.065733  -0.000001   0.000087   0.043259
    22  H    0.000239   0.000000  -0.003467   0.000000   0.000001  -0.004891
              19         20         21         22
     1  C    0.007325  -0.041833   0.030824  -0.005236
     2  C   -0.000824   0.002101   0.000873   0.000920
     3  C    0.006042  -0.002362  -0.002892  -0.001360
     4  C   -0.021367   0.056232   0.006607   0.010014
     5  C    0.028110  -0.003212   0.023179   0.004510
     6  C   -0.058848  -0.208605   0.040844   0.004286
     7  H   -0.000296   0.004934  -0.001644   0.000747
     8  H   -0.000000   0.000020   0.000004  -0.000001
     9  H    0.000000  -0.000002   0.000000  -0.000000
    10  H   -0.000000   0.000002  -0.000000   0.000000
    11  C   -0.030684   0.238465  -0.020181   0.001286
    12  C   -0.004704  -0.003019   0.001739  -0.000791
    13  C   -0.006036   0.011934  -0.002783   0.000239
    14  H   -0.000001   0.000002  -0.000001   0.000000
    15  C    0.057037  -0.020989  -0.065733  -0.003467
    16  H    0.000023  -0.000009  -0.000001   0.000000
    17  H   -0.000119  -0.000760   0.000087   0.000001
    18  O    0.194281  -0.311579   0.043259  -0.004891
    19  H    0.341609   0.172352  -0.033299   0.003711
    20  O    0.172352   8.265550   0.090055  -0.039191
    21  O   -0.033299   0.090055   7.888772   0.248004
    22  H    0.003711  -0.039191   0.248004   0.500121
          Atomic-Atomic Spin Densities.
               1          2          3          4          5          6
     1  C   -0.155024  -0.003675   0.060932  -0.134615   0.042934   0.070766
     2  C   -0.003675  -0.011133  -0.115765   0.191585   0.017526  -0.130257
     3  C    0.060932  -0.115765   0.153586  -0.385519   0.003815   0.319645
     4  C   -0.134615   0.191585  -0.385519   0.743798   0.099511  -0.566556
     5  C    0.042934   0.017526   0.003815   0.099511  -0.150378  -0.115818
     6  C    0.070766  -0.130257   0.319645  -0.566556  -0.115818   0.408357
     7  H    0.002515   0.000450   0.000041  -0.000079  -0.000579  -0.007440
     8  H    0.000595   0.000182  -0.000001   0.000229  -0.000411  -0.000140
     9  H   -0.000054  -0.000376   0.000216  -0.000739   0.000148   0.000985
    10  H   -0.000510   0.001344  -0.001077   0.001677   0.000535  -0.003035
    11  C    0.087985   0.005351  -0.031536   0.256659  -0.048488  -0.247261
    12  C   -0.055345   0.057981   0.006417   0.091030  -0.006958  -0.135634
    13  C   -0.014685   0.020004   0.018379   0.093564  -0.000008  -0.082719
    14  H   -0.000059   0.000771   0.001985   0.000093   0.000286  -0.002205
    15  C    0.118680  -0.048712   0.001519  -0.397919   0.116860   0.502254
    16  H    0.000093  -0.000147  -0.000669  -0.002351   0.000100   0.003077
    17  H    0.000215  -0.000056  -0.000093  -0.001695   0.000986   0.001033
    18  O    0.023911  -0.004809   0.004754  -0.060410   0.022405   0.029797
    19  H   -0.000634   0.000034  -0.000260   0.001900  -0.002129   0.002345
    20  O   -0.005231   0.002217  -0.004293   0.037306  -0.004950   0.017674
    21  O   -0.003180  -0.000253   0.000715  -0.003738  -0.003392  -0.011848
    22  H    0.003495  -0.000574   0.000895  -0.006375   0.001364  -0.003549
               7          8          9         10         11         12
     1  C    0.002515   0.000595  -0.000054  -0.000510   0.087985  -0.055345
     2  C    0.000450   0.000182  -0.000376   0.001344   0.005351   0.057981
     3  C    0.000041  -0.000001   0.000216  -0.001077  -0.031536   0.006417
     4  C   -0.000079   0.000229  -0.000739   0.001677   0.256659   0.091030
     5  C   -0.000579  -0.000411   0.000148   0.000535  -0.048488  -0.006958
     6  C   -0.007440  -0.000140   0.000985  -0.003035  -0.247261  -0.135634
     7  H    0.003379  -0.000071   0.000001  -0.000000   0.003025   0.000067
     8  H   -0.000071  -0.001882   0.000006   0.000001  -0.000377   0.000121
     9  H    0.000001   0.000006   0.001279  -0.000013  -0.000026  -0.000286
    10  H   -0.000000   0.000001  -0.000013  -0.001128   0.000240   0.000654
    11  C    0.003025  -0.000377  -0.000026   0.000240  -0.215149   0.069757
    12  C    0.000067   0.000121  -0.000286   0.000654   0.069757   0.111120
    13  C    0.000072   0.000006  -0.000022   0.000276   0.061445  -0.000005
    14  H    0.000000  -0.000000  -0.000000   0.000020   0.000076  -0.000114
    15  C    0.001759  -0.000127   0.000035  -0.000228  -0.005864  -0.035519
    16  H    0.000000  -0.000000   0.000000  -0.000001   0.000529  -0.002220
    17  H   -0.000000  -0.000000  -0.000000  -0.000000   0.000602  -0.000389
    18  O    0.000622  -0.000016   0.000001  -0.000002  -0.040227   0.000318
    19  H   -0.000059   0.000000  -0.000000   0.000000   0.003682   0.000193
    20  O   -0.000550  -0.000000  -0.000000   0.000001   0.008352   0.002638
    21  O    0.000074   0.000002   0.000000  -0.000000   0.004170  -0.000318
    22  H    0.000082  -0.000003   0.000000  -0.000000   0.000977  -0.000032
              13         14         15         16         17         18
     1  C   -0.014685  -0.000059   0.118680   0.000093   0.000215   0.023911
     2  C    0.020004   0.000771  -0.048712  -0.000147  -0.000056  -0.004809
     3  C    0.018379   0.001985   0.001519  -0.000669  -0.000093   0.004754
     4  C    0.093564   0.000093  -0.397919  -0.002351  -0.001695  -0.060410
     5  C   -0.000008   0.000286   0.116860   0.000100   0.000986   0.022405
     6  C   -0.082719  -0.002205   0.502254   0.003077   0.001033   0.029797
     7  H    0.000072   0.000000   0.001759   0.000000  -0.000000   0.000622
     8  H    0.000006  -0.000000  -0.000127  -0.000000  -0.000000  -0.000016
     9  H   -0.000022  -0.000000   0.000035   0.000000  -0.000000   0.000001
    10  H    0.000276   0.000020  -0.000228  -0.000001  -0.000000  -0.000002
    11  C    0.061445   0.000076  -0.005864   0.000529   0.000602  -0.040227
    12  C   -0.000005  -0.000114  -0.035519  -0.002220  -0.000389   0.000318
    13  C   -0.047847  -0.000560  -0.093739  -0.000395  -0.000607  -0.006715
    14  H   -0.000560  -0.006401  -0.000358  -0.000047   0.000002  -0.000001
    15  C   -0.093739  -0.000358  -0.023681   0.001419  -0.000636   0.000730
    16  H   -0.000395  -0.000047   0.001419   0.003270   0.000016  -0.000025
    17  H   -0.000607   0.000002  -0.000636   0.000016  -0.006024   0.000627
    18  O   -0.006715  -0.000001   0.000730  -0.000025   0.000627   0.627785
    19  H    0.000100  -0.000000  -0.004099  -0.000002  -0.000056  -0.012560
    20  O    0.005426   0.000000  -0.035987  -0.000008  -0.000223  -0.295026
    21  O    0.000110   0.000000   0.014704   0.000001   0.000029   0.033227
    22  H   -0.000488  -0.000000   0.002782   0.000000   0.000005   0.014141
              19         20         21         22
     1  C   -0.000634  -0.005231  -0.003180   0.003495
     2  C    0.000034   0.002217  -0.000253  -0.000574
     3  C   -0.000260  -0.004293   0.000715   0.000895
     4  C    0.001900   0.037306  -0.003738  -0.006375
     5  C   -0.002129  -0.004950  -0.003392   0.001364
     6  C    0.002345   0.017674  -0.011848  -0.003549
     7  H   -0.000059  -0.000550   0.000074   0.000082
     8  H    0.000000  -0.000000   0.000002  -0.000003
     9  H   -0.000000  -0.000000   0.000000   0.000000
    10  H    0.000000   0.000001  -0.000000  -0.000000
    11  C    0.003682   0.008352   0.004170   0.000977
    12  C    0.000193   0.002638  -0.000318  -0.000032
    13  C    0.000100   0.005426   0.000110  -0.000488
    14  H   -0.000000   0.000000   0.000000  -0.000000
    15  C   -0.004099  -0.035987   0.014704   0.002782
    16  H   -0.000002  -0.000008   0.000001   0.000000
    17  H   -0.000056  -0.000223   0.000029   0.000005
    18  O   -0.012560  -0.295026   0.033227   0.014141
    19  H   -0.004889   0.007496   0.000327  -0.000162
    20  O    0.007496   0.843581  -0.040160  -0.027553
    21  O    0.000327  -0.040160   0.052896   0.004681
    22  H   -0.000162  -0.027553   0.004681   0.013074
 Mulliken charges and spin densities:
               1          2
     1  C   -0.322940   0.039110
     2  C   -0.336946  -0.018312
     3  C   -0.101273   0.033685
     4  C    0.298109  -0.042644
     5  C   -0.138722  -0.026641
     6  C    0.782195   0.049474
     7  H    0.185064   0.003308
     8  H    0.152025  -0.001887
     9  H    0.148997   0.001155
    10  H    0.158641  -0.001246
    11  C   -0.527224  -0.086077
    12  C   -0.342674   0.103475
    13  C   -0.415972  -0.048406
    14  H    0.156636  -0.006513
    15  C    0.068370   0.113871
    16  H    0.151274   0.002640
    17  H    0.159917  -0.006265
    18  O   -0.244466   0.338527
    19  H    0.345691  -0.008774
    20  O   -0.210085   0.510711
    21  O   -0.247713   0.048048
    22  H    0.281099   0.002761
 Sum of Mulliken charges =  -0.00000   1.00000
 Mulliken charges and spin densities with hydrogens summed into heavy atoms:
               1          2
     1  C   -0.170915   0.037223
     2  C   -0.187950  -0.017158
     3  C    0.057368   0.032439
     4  C    0.298109  -0.042644
     5  C    0.046342  -0.023333
     6  C    0.782195   0.049474
    11  C   -0.527224  -0.086077
    12  C   -0.186038   0.096962
    13  C   -0.264698  -0.045766
    15  C    0.228286   0.107606
    18  O   -0.244466   0.338527
    20  O    0.135606   0.501938
    21  O    0.033386   0.050809
 Electronic spatial extent (au):  <R**2>=           2542.3095
 Charge=             -0.0000 electrons
 Dipole moment (field-independent basis, Debye):
    X=              2.3685    Y=              0.3434    Z=              0.5036  Tot=              2.4457
 Quadrupole moment (field-independent basis, Debye-Ang):
   XX=            -78.7321   YY=            -65.9084   ZZ=            -78.0843
   XY=             -2.9012   XZ=              3.1710   YZ=             -0.9756
 Traceless Quadrupole moment (field-independent basis, Debye-Ang):
   XX=             -4.4905   YY=              8.3332   ZZ=             -3.8427
   XY=             -2.9012   XZ=              3.1710   YZ=             -0.9756
 Octapole moment (field-independent basis, Debye-Ang**2):
  XXX=             27.3191  YYY=             -0.0700  ZZZ=              2.9099  XYY=             -6.2608
  XXY=             11.5560  XXZ=             -3.4895  XZZ=            -24.0409  YZZ=             -3.7550
  YYZ=              2.0409  XYZ=              6.8421
 Hexadecapole moment (field-independent basis, Debye-Ang**3):
 XXXX=          -2045.0656 YYYY=          -1076.5915 ZZZZ=           -167.2377 XXXY=            -56.2447
 XXXZ=             77.9120 YYYX=             -3.1099 YYYZ=              6.9257 ZZZX=            -12.4187
 ZZZY=            -15.6794 XXYY=           -496.0739 XXZZ=           -361.0541 YYZZ=           -245.5271
 XXYZ=            -10.0271 YYXZ=              2.7441 ZZXY=             13.4138
 N-N= 7.462347446140D+02 E-N=-2.922274431156D+03  KE= 6.099064333292D+02
                          Isotropic Fermi Contact Couplings
        Atom                 a.u.       MegaHertz       Gauss      10(-4) cm-1
     1  C(13)              0.00333       3.74540       1.33645       1.24933
     2  C(13)             -0.00301      -3.37956      -1.20591      -1.12730
     3  C(13)              0.00304       3.41272       1.21774       1.13836
     4  C(13)             -0.00621      -6.98159      -2.49120      -2.32881
     5  C(13)             -0.00417      -4.68793      -1.67277      -1.56373
     6  C(13)              0.00415       4.66146       1.66333       1.55490
     7  H(1)               0.00031       1.40675       0.50196       0.46924
     8  H(1)              -0.00035      -1.56548      -0.55860      -0.52219
     9  H(1)               0.00023       1.04176       0.37173       0.34749
    10  H(1)              -0.00033      -1.49237      -0.53251      -0.49780
    11  C(13)             -0.00125      -1.40837      -0.50254      -0.46978
    12  C(13)              0.01007      11.31791       4.03851       3.77525
    13  C(13)             -0.00633      -7.12075      -2.54086      -2.37523
    14  H(1)              -0.00132      -5.89243      -2.10257      -1.96550
    15  C(13)              0.01904      21.40724       7.63863       7.14069
    16  H(1)               0.00075       3.33480       1.18994       1.11237
    17  H(1)              -0.00133      -5.94912      -2.12280      -1.98441
    18  O(17)              0.43061    -261.03116     -93.14241     -87.07062
    19  H(1)              -0.00465     -20.76506      -7.40949      -6.92648
    20  O(17)              0.38146    -231.23949     -82.51200     -77.13319
    21  O(17)             -0.01519       9.20891       3.28597       3.07176
    22  H(1)               0.00495      22.10960       7.88925       7.37497
 --------------------------------------------------------
       Center         ----  Spin Dipole Couplings  ----
                      3XX-RR        3YY-RR        3ZZ-RR
 --------------------------------------------------------
     1   Atom       -0.009980     -0.011015      0.020995
     2   Atom        0.008146      0.008275     -0.016422
     3   Atom       -0.008247     -0.011054      0.019301
     4   Atom        0.010060      0.008780     -0.018839
     5   Atom        0.011271      0.010885     -0.022156
     6   Atom       -0.006861     -0.021415      0.028277
     7   Atom        0.000867      0.005302     -0.006169
     8   Atom       -0.001118      0.002135     -0.001017
     9   Atom        0.000514      0.000178     -0.000692
    10   Atom        0.002229     -0.001328     -0.000902
    11   Atom        0.084830      0.016197     -0.101027
    12   Atom       -0.035628     -0.045520      0.081149
    13   Atom        0.019968      0.013257     -0.033225
    14   Atom        0.006204     -0.005585     -0.000619
    15   Atom       -0.049668     -0.044379      0.094046
    16   Atom        0.002163     -0.000342     -0.001822
    17   Atom       -0.000825      0.005849     -0.005024
    18   Atom       -0.432637      0.017390      0.415248
    19   Atom        0.012305     -0.008925     -0.003380
    20   Atom        1.782313     -1.062134     -0.720179
    21   Atom        0.118013      0.144094     -0.262107
    22   Atom       -0.005374     -0.001269      0.006643
 --------------------------------------------------------
                        XY            XZ            YZ
 --------------------------------------------------------
     1   Atom       -0.000508     -0.007921     -0.003930
     2   Atom       -0.000849      0.005369      0.002317
     3   Atom        0.000246     -0.006444     -0.003081
     4   Atom       -0.000188      0.006221      0.002584
     5   Atom       -0.005487      0.006506      0.003706
     6   Atom       -0.000830     -0.011943     -0.000886
     7   Atom       -0.008418     -0.002292      0.001602
     8   Atom       -0.000671     -0.000315      0.000438
     9   Atom        0.000377      0.000210      0.000208
    10   Atom       -0.000035      0.000609     -0.000055
    11   Atom        0.030002      0.027377      0.014520
    12   Atom        0.004408     -0.027623     -0.014352
    13   Atom        0.001474      0.013965      0.005557
    14   Atom        0.003779      0.002234      0.000519
    15   Atom        0.003875     -0.009979      0.022681
    16   Atom        0.000391      0.001086      0.000051
    17   Atom       -0.003424     -0.000908      0.001418
    18   Atom        0.532233     -0.639211     -0.972084
    19   Atom        0.016197      0.015188     -0.072640
    20   Atom        0.710940      1.132378      0.312866
    21   Atom        0.259340     -0.092243     -0.086921
    22   Atom       -0.009549      0.011699     -0.022178
 --------------------------------------------------------


 ---------------------------------------------------------------------------------
              Anisotropic Spin Dipole Couplings in Principal Axis System
 ---------------------------------------------------------------------------------

       Atom             a.u.   MegaHertz   Gauss  10(-4) cm-1        Axes

              Baa    -0.0131    -1.755    -0.626    -0.585  0.7269  0.6423  0.2431
     1 C(13)  Bbb    -0.0102    -1.372    -0.490    -0.458 -0.6476  0.7589 -0.0688
              Bcc     0.0233     3.127     1.116     1.043 -0.2286 -0.1074  0.9676
 
              Baa    -0.0178    -2.385    -0.851    -0.796 -0.2049 -0.0934  0.9743
     2 C(13)  Bbb     0.0084     1.122     0.401     0.374  0.3403  0.9265  0.1604
              Bcc     0.0094     1.262     0.450     0.421  0.9177 -0.3645  0.1581
 
              Baa    -0.0114    -1.536    -0.548    -0.512  0.2089  0.9678  0.1407
     3 C(13)  Bbb    -0.0096    -1.285    -0.459    -0.429  0.9541 -0.2333  0.1880
              Bcc     0.0210     2.822     1.007     0.941 -0.2148 -0.0950  0.9720
 
              Baa    -0.0203    -2.731    -0.974    -0.911 -0.2002 -0.0878  0.9758
     4 C(13)  Bbb     0.0090     1.202     0.429     0.401 -0.1545  0.9863  0.0571
              Bcc     0.0114     1.528     0.545     0.510  0.9675  0.1393  0.2110
 
              Baa    -0.0240    -3.222    -1.150    -1.075 -0.1999 -0.1345  0.9705
     5 C(13)  Bbb     0.0073     0.981     0.350     0.327  0.6363  0.7354  0.2330
              Bcc     0.0167     2.241     0.800     0.747  0.7451 -0.6642  0.0614
 
              Baa    -0.0215    -2.888    -1.031    -0.963  0.0880  0.9954  0.0388
     6 C(13)  Bbb    -0.0104    -1.400    -0.500    -0.467  0.9518 -0.0955  0.2914
              Bcc     0.0320     4.289     1.530     1.430 -0.2938 -0.0113  0.9558
 
              Baa    -0.0070    -3.757    -1.340    -1.253  0.4733  0.2118  0.8550
     7 H(1)   Bbb    -0.0051    -2.741    -0.978    -0.914  0.6361  0.5893 -0.4981
              Bcc     0.0122     6.498     2.319     2.167 -0.6094  0.7796  0.1442
 
              Baa    -0.0014    -0.750    -0.268    -0.250  0.8193  0.0852  0.5670
     8 H(1)   Bbb    -0.0009    -0.498    -0.178    -0.166 -0.5369 -0.2332  0.8108
              Bcc     0.0023     1.249     0.446     0.417 -0.2013  0.9687  0.1453
 
              Baa    -0.0008    -0.401    -0.143    -0.134 -0.1104 -0.1735  0.9786
     9 H(1)   Bbb    -0.0001    -0.033    -0.012    -0.011 -0.5668  0.8199  0.0814
              Bcc     0.0008     0.435     0.155     0.145  0.8165  0.5456  0.1889
 
              Baa    -0.0013    -0.712    -0.254    -0.238 -0.0154  0.9889  0.1476
    10 H(1)   Bbb    -0.0010    -0.538    -0.192    -0.180 -0.1843 -0.1479  0.9717
              Bcc     0.0023     1.251     0.446     0.417  0.9827 -0.0122  0.1846
 
              Baa    -0.1058   -14.204    -5.068    -4.738 -0.1283 -0.0860  0.9880
    11 C(13)  Bbb     0.0051     0.680     0.243     0.227 -0.3621  0.9315  0.0341
              Bcc     0.1008    13.524     4.826     4.511  0.9233  0.3534  0.1507
 
              Baa    -0.0474    -6.364    -2.271    -2.123 -0.2201  0.9735  0.0614
    12 C(13)  Bbb    -0.0416    -5.582    -1.992    -1.862  0.9506  0.2000  0.2373
              Bcc     0.0890    11.945     4.262     3.985 -0.2188 -0.1106  0.9695
 
              Baa    -0.0372    -4.988    -1.780    -1.664 -0.2338 -0.0997  0.9672
    13 C(13)  Bbb     0.0130     1.749     0.624     0.583 -0.2718  0.9618  0.0335
              Bcc     0.0241     3.239     1.156     1.081  0.9335  0.2551  0.2520
 
              Baa    -0.0067    -3.572    -1.275    -1.192 -0.2847  0.9583  0.0229
    14 H(1)   Bbb    -0.0012    -0.656    -0.234    -0.219 -0.2419 -0.0949  0.9656
              Bcc     0.0079     4.229     1.509     1.410  0.9276  0.2694  0.2589
 
              Baa    -0.0546    -7.331    -2.616    -2.445  0.7744 -0.6156  0.1459
    15 C(13)  Bbb    -0.0436    -5.853    -2.089    -1.952  0.6296  0.7726 -0.0817
              Bcc     0.0982    13.184     4.704     4.398 -0.0625  0.1551  0.9859
 
              Baa    -0.0021    -1.120    -0.400    -0.374 -0.2491  0.0271  0.9681
    16 H(1)   Bbb    -0.0004    -0.210    -0.075    -0.070 -0.1259  0.9902 -0.0601
              Bcc     0.0025     1.331     0.475     0.444  0.9603  0.1369  0.2433
 
              Baa    -0.0053    -2.812    -1.003    -0.938  0.1371 -0.0837  0.9870
    17 H(1)   Bbb    -0.0022    -1.196    -0.427    -0.399  0.9111  0.4017 -0.0925
              Bcc     0.0075     4.008     1.430     1.337 -0.3888  0.9119  0.1313
 
              Baa    -0.7861    56.880    20.296    18.973  0.7404 -0.6578 -0.1383
    18 O(17)  Bbb    -0.7703    55.737    19.888    18.592  0.5504  0.4752  0.6864
              Bcc     1.5564  -112.617   -40.185   -37.565 -0.3858 -0.5844  0.7139
 
              Baa    -0.0840   -44.800   -15.986   -14.944 -0.2247  0.7023  0.6754
    19 H(1)   Bbb     0.0174     9.297     3.317     3.101  0.9744  0.1579  0.1600
              Bcc     0.0665    35.504    12.669    11.843 -0.0057 -0.6941  0.7198
 
              Baa    -1.2498    90.437    32.270    30.167 -0.0628  0.9123 -0.4047
    20 O(17)  Bbb    -1.1431    82.711    29.513    27.589 -0.4106  0.3460  0.8436
              Bcc     2.3929  -173.148   -61.784   -57.756  0.9096  0.2191  0.3529
 
              Baa    -0.2861    20.700     7.386     6.905  0.1579  0.1032  0.9820
    21 O(17)  Bbb    -0.1283     9.285     3.313     3.097  0.7169 -0.6959 -0.0421
              Bcc     0.4144   -29.986   -10.700   -10.002  0.6791  0.7107 -0.1839
 
              Baa    -0.0198   -10.588    -3.778    -3.532 -0.0202  0.7622  0.6471
    22 H(1)   Bbb    -0.0116    -6.172    -2.202    -2.059  0.9249  0.2600 -0.2775
              Bcc     0.0314    16.761     5.981     5.591  0.3797 -0.5929  0.7102
 

 ---------------------------------------------------------------------------------

 Calling FoFJK, ICntrl=      2127 FMM=F ISym2X=0 I1Cent= 0 IOpClX= 1 NMat=1 NMatS=1 NMatT=0.
 ***** Axes restored to original set *****
 -------------------------------------------------------------------
 Center     Atomic                   Forces (Hartrees/Bohr)
 Number     Number              X              Y              Z
 -------------------------------------------------------------------
      1        6          -0.021230116   -0.012379501    0.002050540
      2        6           0.021086076   -0.013380314   -0.005928223
      3        6          -0.001807617    0.034813602    0.005822066
      4        6           0.011737900   -0.004190847   -0.002970763
      5        6           0.002375026    0.029131814    0.003191735
      6        6          -0.014588754    0.012570877    0.005254167
      7        1           0.002720640   -0.003829887   -0.000464350
      8        1           0.000996887   -0.003864916   -0.000819061
      9        1          -0.002013751   -0.003773952   -0.000451490
     10        1          -0.003970897   -0.002123598    0.000410655
     11        6          -0.018937602   -0.042575433   -0.004632060
     12        6          -0.002812463   -0.034140017   -0.005150613
     13        6           0.019864417    0.013943776   -0.000266720
     14        1          -0.003670224    0.001952120    0.000852240
     15        6          -0.013986318    0.004911064    0.000251606
     16        1          -0.001899556    0.003335661    0.001335122
     17        1          -0.000130310    0.005693264    0.000916961
     18        8           0.122735028   -0.025751768    0.042454723
     19        1           0.021882192   -0.047691766    0.007219536
     20        8          -0.120892532    0.115499432   -0.066011546
     21        8           0.009595907   -0.026873806    0.013723126
     22        1          -0.007053931   -0.001275805    0.003212349
 -------------------------------------------------------------------
 Cartesian Forces:  Max     0.122735028 RMS     0.030650120

 GradGradGradGradGradGradGradGradGradGradGradGradGradGradGradGradGradGrad
 Berny optimization.
 FormGI is forming the generalized inverse of G from B-inverse, IUseBI=4.
 Internal  Forces:  Max     0.165965881 RMS     0.023578817
 Search for a local minimum.
 Step number   1 out of a maximum of  132
 All quantities printed in internal units (Hartrees-Bohrs-Radians)
 Mixed Optimization -- RFO/linear search
 Second derivative matrix not updated -- first step.
 ITU=  0
     Eigenvalues ---    0.00230   0.00230   0.00230   0.00230   0.00354
     Eigenvalues ---    0.01795   0.02072   0.02076   0.02102   0.02130
     Eigenvalues ---    0.02137   0.02146   0.02161   0.02166   0.02176
     Eigenvalues ---    0.02181   0.02182   0.02183   0.02189   0.02191
     Eigenvalues ---    0.16000   0.16000   0.16000   0.16000   0.16000
     Eigenvalues ---    0.16000   0.16000   0.16000   0.16000   0.22000
     Eigenvalues ---    0.22082   0.22576   0.23533   0.24504   0.24930
     Eigenvalues ---    0.25000   0.25000   0.33386   0.33428   0.35079
     Eigenvalues ---    0.35085   0.35121   0.35126   0.35131   0.35150
     Eigenvalues ---    0.35153   0.35608   0.39267   0.41771   0.42391
     Eigenvalues ---    0.44080   0.45558   0.46097   0.46298   0.46453
     Eigenvalues ---    0.46479   0.46845   0.46848   0.51426   0.52430
 RFO step:  Lambda=-1.38413383D-01 EMin= 2.30000000D-03
 Linear search not attempted -- first point.
 Maximum step size (   0.300) exceeded in Quadratic search.
    -- Step size scaled by   0.521
 Iteration  1 RMS(Cart)=  0.12384973 RMS(Int)=  0.00869051
 Iteration  2 RMS(Cart)=  0.03099121 RMS(Int)=  0.00047870
 Iteration  3 RMS(Cart)=  0.00075919 RMS(Int)=  0.00001342
 Iteration  4 RMS(Cart)=  0.00000052 RMS(Int)=  0.00001341
 Variable       Old X    -DE/DX   Delta X   Delta X   Delta X     New X
                                 (Linear)    (Quad)   (Total)
    R1        2.63103   0.01359   0.00000   0.01092   0.01092   2.64194
    R2        2.63323  -0.01818   0.00000  -0.01605  -0.01605   2.61718
    R3        2.05463  -0.00399   0.00000  -0.00424  -0.00424   2.05039
    R4        2.63169  -0.01746   0.00000  -0.01528  -0.01528   2.61641
    R5        2.05471  -0.00427   0.00000  -0.00454  -0.00454   2.05018
    R6        2.63859   0.01374   0.00000   0.01233   0.01233   2.65093
    R7        2.05537  -0.00389   0.00000  -0.00414  -0.00414   2.05123
    R8        2.65317   0.01299   0.00000   0.01301   0.01302   2.66619
    R9        2.63750   0.01655   0.00000   0.01471   0.01471   2.65221
   R10        2.64596   0.00825   0.00000   0.00753   0.00753   2.65348
   R11        2.05427  -0.00303   0.00000  -0.00322  -0.00322   2.05106
   R12        2.65035   0.01052   0.00000   0.00963   0.00964   2.65999
   R13        2.63498  -0.01339   0.00000  -0.01194  -0.01194   2.62304
   R14        2.58453  -0.02551   0.00000  -0.02035  -0.02035   2.56417
   R15        2.63105  -0.01594   0.00000  -0.01400  -0.01401   2.61704
   R16        2.05546  -0.00385   0.00000  -0.00410  -0.00410   2.05136
   R17        2.63105   0.01061   0.00000   0.00835   0.00834   2.63940
[...]
 ITU=  1  1  0  1  0
     Eigenvalues ---    0.00026   0.00142   0.00566   0.00801   0.01771
     Eigenvalues ---    0.02071   0.02104   0.02115   0.02142   0.02147
     Eigenvalues ---    0.02164   0.02167   0.02172   0.02182   0.02184
     Eigenvalues ---    0.02188   0.02191   0.02227   0.02827   0.09964
     Eigenvalues ---    0.14351   0.15914   0.15992   0.15997   0.16000
     Eigenvalues ---    0.16004   0.16055   0.16085   0.17938   0.21998
     Eigenvalues ---    0.22062   0.22400   0.23470   0.24527   0.24930
     Eigenvalues ---    0.26239   0.34570   0.35081   0.35105   0.35125
     Eigenvalues ---    0.35132   0.35142   0.35234   0.38809   0.40516
     Eigenvalues ---    0.41503   0.42230   0.44048   0.45369   0.46083
     Eigenvalues ---    0.46370   0.46527   0.46741   0.47191   0.47677
     Eigenvalues ---    0.50744   0.64039   0.65446   0.77817   2.96339
 En-DIIS/RFO-DIIS/Sim-DIIS IScMMF=       -3 using points:    25   24   23   22
 RFO step:  Lambda=-2.34687693D-04.
 DidBck=F Rises=F RFO-DIIS coefs:    2.05629   -0.23500   -0.82322    0.00193
 Maximum step size (   0.141) exceeded in Quadratic search.
    -- Step size scaled by   0.668
 Iteration  1 RMS(Cart)=  0.03728247 RMS(Int)=  0.00058823
 Iteration  2 RMS(Cart)=  0.00154539 RMS(Int)=  0.00011066
 Iteration  3 RMS(Cart)=  0.00000549 RMS(Int)=  0.00011060
 Iteration  4 RMS(Cart)=  0.00000000 RMS(Int)=  0.00011060
 Variable       Old X    -DE/DX   Delta X   Delta X   Delta X     New X
                                 (Linear)    (Quad)   (Total)
    R1        2.66800  -0.00005  -0.00038   0.00010  -0.00028   2.66772
    R2        2.58374   0.00006   0.00016  -0.00012   0.00005   2.58378
    R3        2.04291   0.00004  -0.00002   0.00009   0.00007   2.04298
    R4        2.58211  -0.00013   0.00023   0.00000   0.00023   2.58234
    R5        2.04420  -0.00005   0.00017  -0.00014   0.00003   2.04423
    R6        2.67728   0.00000  -0.00011   0.00004  -0.00007   2.67720
    R7        2.04493   0.00016  -0.00019   0.00027   0.00007   2.04501
    R8        2.67892   0.00006  -0.00002   0.00003   0.00000   2.67892
    R9        2.67864   0.00013   0.00011  -0.00005   0.00006   2.67870
   R10        2.67287  -0.00040   0.00039  -0.00008   0.00029   2.67317
   R11        2.04087  -0.00041   0.00045  -0.00010   0.00033   2.04120
   R12        2.68899   0.00089  -0.00062   0.00083   0.00022   2.68921
   R13        2.58569   0.00099  -0.00223   0.00129  -0.00094   2.58475
   R14        2.56471  -0.00198   0.00384  -0.00024   0.00364   2.56835
   R15        2.57892   0.00003  -0.00029  -0.00020  -0.00049   2.57843
   R16        2.04321   0.00014  -0.00015   0.00030   0.00015   2.04335
   R17        2.66751  -0.00024   0.00099  -0.00035   0.00065   2.66816
   R18        2.04323   0.00009  -0.00015   0.00024   0.00010   2.04333
   R19        2.04624   0.00004  -0.00002   0.00008   0.00005   2.04629
   R20        1.82480  -0.00007  -0.00001   0.00181   0.00178   1.82658
   R21        3.75507  -0.00008  -0.00448  -0.00323  -0.00771   3.74737
   R22        2.46520  -0.00102   0.00011   0.00164   0.00175   2.46695
   R23        1.83696   0.00099  -0.00119   0.00338   0.00218   1.83915
    A1        2.09924   0.00002   0.00015  -0.00007   0.00008   2.09932
    A2        2.08777  -0.00007   0.00023  -0.00010   0.00013   2.08791
    A3        2.09616   0.00005  -0.00038   0.00017  -0.00020   2.09596
    A4        2.10084  -0.00015   0.00044  -0.00032   0.00011   2.10095
    A5        2.08988  -0.00008   0.00101  -0.00083   0.00019   2.09007
    A6        2.09245   0.00023  -0.00146   0.00116  -0.00029   2.09216
    A7        2.11073   0.00003  -0.00035   0.00029  -0.00008   2.11065
    A8        2.10507  -0.00002   0.00003  -0.00019  -0.00015   2.10493
    A9        2.06737  -0.00001   0.00031  -0.00009   0.00023   2.06760
   A10        2.06560   0.00013  -0.00007   0.00004  -0.00003   2.06557
   A11        2.12956  -0.00026   0.00081  -0.00070   0.00013   2.12969
   A12        2.08801   0.00013  -0.00073   0.00065  -0.00009   2.08792
   A13        2.10018   0.00020  -0.00063   0.00046  -0.00019   2.09999
   A14        2.11182   0.00001   0.00007  -0.00058  -0.00052   2.11130
   A15        2.07117  -0.00020   0.00061   0.00012   0.00072   2.07190
   A16        2.08979  -0.00023   0.00053  -0.00040   0.00010   2.08989
   A17        2.07035   0.00002  -0.00060   0.00040  -0.00023   2.07012
   A18        2.12302   0.00021   0.00008   0.00001   0.00014   2.12316
   A19        2.10587  -0.00055   0.00245  -0.00188   0.00053   2.10640
   A20        2.03040   0.00141  -0.00462   0.00392  -0.00069   2.02970
   A21        2.14691  -0.00086   0.00226  -0.00203   0.00017   2.14708
   A22        2.09457   0.00012   0.00040  -0.00038   0.00000   2.09457
   A23        2.07983  -0.00013   0.00031   0.00011   0.00043   2.08026
   A24        2.10878   0.00001  -0.00072   0.00028  -0.00043   2.10835
   A25        2.11170  -0.00002   0.00049  -0.00023   0.00025   2.11195
   A26        2.09664   0.00009  -0.00069   0.00038  -0.00031   2.09634
   A27        2.07484  -0.00007   0.00021  -0.00015   0.00006   2.07490
   A28        2.09586   0.00030  -0.00191   0.00143  -0.00048   2.09538
   A29        2.08626  -0.00006   0.00080  -0.00012   0.00067   2.08694
   A30        2.10104  -0.00024   0.00112  -0.00130  -0.00018   2.10086
   A31        2.96863  -0.00369  -0.01914  -0.00624  -0.02538   2.94325
   A32        1.73793   0.00104   0.03202  -0.00420   0.02782   1.76575
   A33        1.84764   0.00045  -0.00182   0.00365   0.00183   1.84947
   A34        4.34580   0.00089   0.02128  -0.01095   0.01041   4.35622
   A35        3.51984  -0.00174  -0.11413  -0.02094  -0.13521   3.38463
    D1       -0.00129  -0.00014   0.00493  -0.00062   0.00430   0.00301
    D2       -3.13592  -0.00001   0.00465  -0.00256   0.00209  -3.13383
    D3        3.13634  -0.00021   0.00591   0.00001   0.00589  -3.14095
    D4        0.00171  -0.00008   0.00562  -0.00192   0.00369   0.00540
    D5        0.00034  -0.00009   0.00028  -0.00036  -0.00008   0.00026
    D6        3.13597  -0.00041   0.00585  -0.00096   0.00484   3.14081
    D7       -3.13727  -0.00003  -0.00070  -0.00099  -0.00169  -3.13896
    D8       -0.00164  -0.00034   0.00487  -0.00159   0.00324   0.00159
    D9       -0.00043   0.00013  -0.00356   0.00108  -0.00248  -0.00290
   D10       -3.13694   0.00017  -0.00252  -0.00167  -0.00418  -3.14112
   D11        3.13419   0.00000  -0.00327   0.00301  -0.00027   3.13393
   D12       -0.00232   0.00004  -0.00222   0.00026  -0.00197  -0.00429
   D13        0.00299   0.00010  -0.00286  -0.00055  -0.00340  -0.00040
   D14       -3.13293   0.00021  -0.00480  -0.00083  -0.00563  -3.13857
   D15        3.13961   0.00007  -0.00388   0.00214  -0.00173   3.13788
   D16        0.00368   0.00018  -0.00583   0.00186  -0.00397  -0.00029
   D17       -0.00389  -0.00033   0.00795  -0.00042   0.00750   0.00361
   D18       -3.13706  -0.00009   0.00688  -0.00235   0.00456  -3.13250
   D19        3.13218  -0.00044   0.00985  -0.00015   0.00968  -3.14132
   D20       -0.00099  -0.00020   0.00879  -0.00207   0.00674   0.00575
   D21        3.13376  -0.00016   0.00005   0.00236   0.00244   3.13620
   D22       -0.00398  -0.00005   0.00122   0.00008   0.00130  -0.00268
   D23       -0.00210  -0.00005  -0.00192   0.00208   0.00018  -0.00192
   D24       -3.13983   0.00006  -0.00075  -0.00021  -0.00097  -3.14080
   D25        0.00228   0.00033  -0.00674   0.00087  -0.00584  -0.00356
   D26        3.13519   0.00008  -0.00564   0.00285  -0.00281   3.13238
   D27       -3.13349   0.00064  -0.01218   0.00146  -0.01065   3.13905
   D28       -0.00057   0.00039  -0.01109   0.00344  -0.00762  -0.00820
   D29        0.00268   0.00037  -0.01026   0.00033  -0.01005  -0.00737
   D30       -3.14104   0.00041  -0.01823   0.00931  -0.00866   3.13349
   D31       -3.13032   0.00062  -0.01135  -0.00162  -0.01305   3.13981
   D32        0.00914   0.00066  -0.01932   0.00735  -0.01165  -0.00252
   D33       -0.00130  -0.00030   0.00480   0.00142   0.00635   0.00505
   D34       -3.13586  -0.00017   0.00330  -0.00033   0.00310  -3.13276
   D35       -3.14061  -0.00034   0.01323  -0.00818   0.00485  -3.13576
   D36        0.00801  -0.00021   0.01173  -0.00993   0.00161   0.00962
   D37       -3.13237   0.00132  -0.08833   0.00689  -0.08075   3.07006
   D38       -0.06902   0.00250  -0.08052   0.02272  -0.05847  -0.12750
   D39        0.00357   0.00014  -0.00376  -0.00032  -0.00409  -0.00052
   D40       -3.14115   0.00010  -0.00163  -0.00028  -0.00195   3.14009
   D41        3.14124   0.00002  -0.00494   0.00200  -0.00293   3.13832
   D42       -0.00348  -0.00001  -0.00281   0.00204  -0.00078  -0.00426
   D43       -0.00189   0.00004   0.00234  -0.00145   0.00085  -0.00104
   D44        3.13261  -0.00009   0.00385   0.00032   0.00412   3.13673
   D45       -3.14039   0.00008   0.00024  -0.00149  -0.00127   3.14152
   D46       -0.00589  -0.00005   0.00175   0.00028   0.00200  -0.00389
   D47        1.27130  -0.00101  -0.04073  -0.01134  -0.05207   1.21924
   D48       -3.00731   0.00005  -0.00074   0.00442   0.00368  -3.00364
         Item               Value     Threshold  Converged?
 Maximum Force            0.003690     0.002500     NO 
 RMS     Force            0.000633     0.001667     YES
 Maximum Displacement     0.164767     0.010000     NO 
 RMS     Displacement     0.036874     0.006667     NO 
 Predicted change in Energy=-8.051238D-05
 GradGradGradGradGradGradGradGradGradGradGradGradGradGradGradGradGradGrad

                          Input orientation:                          
 ---------------------------------------------------------------------
 Center     Atomic      Atomic             Coordinates (Angstroms)
 Number     Number       Type             X           Y           Z
 ---------------------------------------------------------------------
      1          6           0        0.350548   15.626095    0.817107
      2          6           0        1.663506   15.125905    0.679866
      3          6           0        1.874122   13.804088    0.404552
      4          6           0        0.786167   12.909108    0.254731
      5          6           0       -0.723298   14.791061    0.679162
      6          6           0       -0.529040   13.418381    0.398014
      7          1           0       -1.732556   15.161779    0.782628
      8          1           0        0.197845   16.674066    1.034384
      9          1           0        2.507075   15.792745    0.797858
     10          1           0        2.879028   13.416635    0.299021
     11          6           0       -1.625660   12.522033    0.259773
     12          6           0        0.978048   11.533260   -0.027314
     13          6           0       -0.099593   10.706497   -0.157199
     14          1           0        1.984299   11.152233   -0.134450
     15          6           0       -1.415249   11.198603   -0.014282
     16          1           0        0.044839    9.657005   -0.373713
     17          1           0       -2.263223   10.534155   -0.123908
     18          8           0       -2.864787   13.058129    0.415818
     19          1           0       -3.532623   12.360613    0.373956
     20          8           0       -5.129644   11.210043    0.132936
     21          8           0       -5.172211   11.105706   -1.167645
     22          1           0       -6.010321   10.655529   -1.372824
 ---------------------------------------------------------------------
                    Distance matrix (angstroms):
                    1          2          3          4          5
     1  C    0.000000
     2  C    1.411695   0.000000
     3  C    2.410642   1.366513   0.000000
     4  C    2.808567   2.421704   1.416715   0.000000
     5  C    1.367280   2.410177   2.792154   2.449566   0.000000
     6  C    2.413155   2.793267   2.433928   1.417624   1.414579
     7  H    2.134502   3.397806   3.872260   3.420112   1.080157
     8  H    1.081097   2.161168   3.382805   3.889587   2.126122
     9  H    2.163043   1.081761   2.123694   3.401746   3.384195
    10  H    3.397549   2.131700   1.082170   2.153977   3.874315
    11  C    3.721722   4.216069   3.730027   2.442695   2.477626
    12  C    4.225885   3.725192   2.479137   1.417507   3.742587
    13  C    5.035309   4.831186   3.715667   2.409513   4.215705
    14  H    4.856958   4.068917   2.708320   2.161850   4.608050
    15  C    4.838588   5.038281   4.217101   2.800790   3.723630
    16  H    6.094387   5.799912   4.598942   3.394214   5.296897
    17  H    5.800445   6.095033   5.299940   3.883626   4.597558
    18  O    4.134472   4.985063   4.797274   3.657542   2.767378
    19  H    5.093012   5.894080   5.596200   4.355113   3.727270
    20  O    7.071217   7.860025   7.473660   6.156174   5.704204
    21  O    7.407700   8.142624   7.707391   6.385740   6.065094
    22  H    8.364387   9.115120   8.673923   7.343010   7.018966
                    6          7          8          9         10
     6  C    0.000000
     7  H    2.153095   0.000000
     8  H    3.396000   2.465125   0.000000
     9  H    3.874981   4.286354   2.482985   0.000000
    10  H    3.409506   4.954404   4.282565   2.456234   0.000000
    11  C    1.423069   2.693151   4.600496   5.297791   4.592828
    12  C    2.450693   4.601036   5.306958   4.600223   2.695798
    13  C    2.801249   4.837290   6.092636   5.794547   4.052798
    14  H    3.425758   5.543691   5.920155   4.762021   2.473045
    15  C    2.425442   4.054937   5.803660   6.095108   4.843412
    16  H    3.882377   5.899051   7.158582   6.714350   4.756051
    17  H    3.405665   4.745347   6.715430   7.159481   5.910187
    18  O    2.363432   2.416990   4.778843   6.039949   5.756178
    19  H    3.184488   3.354667   5.740944   6.959683   6.498467
    20  O    5.110047   5.251526   7.684419   8.931000   8.308759
    21  O    5.418375   5.664496   8.043200   9.208853   8.503761
    22  H    6.388557   6.576590   8.975453  10.180810   9.457236
                   11         12         13         14         15
    11  C    0.000000
    12  C    2.799890   0.000000
    13  C    2.408094   1.364447   0.000000
    14  H    3.881182   1.081296   2.131152   0.000000
    15  C    1.367789   2.416616   1.411929   3.401988   0.000000
    16  H    3.376427   2.123959   1.081283   2.460582   2.153502
    17  H    2.122583   3.393137   2.170738   4.292270   1.082852
    18  O    1.359111   4.158000   3.674889   5.239167   2.396661
    19  H    1.917186   4.603442   3.847586   5.670546   2.446277
    20  O    3.743703   6.118337   5.063512   7.119202   3.717329
    21  O    4.076951   6.269676   5.187660   7.230857   3.931112
    22  H    5.037307   7.170642   6.034654   8.105198   4.822370
                   16         17         18         19         20
    16  H    0.000000
    17  H    2.481722   0.000000
    18  O    4.544989   2.650213   0.000000
    19  H    4.546068   2.279297   0.966585   0.000000
    20  O    5.426223   2.956208   2.936839   1.983022   0.000000
    21  O    5.472355   3.142971   3.412260   2.576737   1.305453
    22  H    6.217735   3.951616   4.343513   3.478151   1.830407
                   21         22
    21  O    0.000000
    22  H    0.973235   0.000000
 Stoichiometry    C10H9O3(2)
 Framework group  C1[X(C10H9O3)]
 Deg. of freedom    60
 Full point group                 C1      NOp   1
 Largest Abelian subgroup         C1      NOp   1
 Largest concise Abelian subgroup C1      NOp   1
                         Standard orientation:                         
 ---------------------------------------------------------------------
 Center     Atomic      Atomic             Coordinates (Angstroms)
 Number     Number       Type             X           Y           Z
 ---------------------------------------------------------------------
      1          6           0        2.689893   -1.855721    0.065337
      2          6           0        3.588996   -0.770691    0.150229
      3          6           0        3.124305    0.514330    0.138382
      4          6           0        1.737597    0.786326    0.037668
      5          6           0        1.344887   -1.630518   -0.033148
      6          6           0        0.841588   -0.308627   -0.051225
      7          1           0        0.647114   -2.452379   -0.099447
      8          1           0        3.070669   -2.867481    0.076366
      9          1           0        4.651987   -0.958594    0.220596
     10          1           0        3.810257    1.348842    0.202821
     11          6           0       -0.551652   -0.041598   -0.163924
     12          6           0        1.230627    2.109951    0.019662
     13          6           0       -0.112719    2.324840   -0.085040
     14          1           0        1.920485    2.939858    0.087137
     15          6           0       -1.017084    1.244497   -0.177363
     16          1           0       -0.501326    3.333801   -0.097529
     17          1           0       -2.081612    1.426797   -0.255562
     18          8           0       -1.366836   -1.125207   -0.255845
     19          1           0       -2.279037   -0.839400   -0.398988
     20          8           0       -4.242474   -0.576865   -0.490475
     21          8           0       -4.516849   -0.285632    0.752147
     22          1           0       -5.487896   -0.266549    0.814521
 ---------------------------------------------------------------------
 Rotational constants (GHZ):           1.6196492           0.4176463           0.3393250
 Standard basis: 6-311+G(2df,2p) (5D, 7F)
 There are   588 symmetry adapted cartesian basis functions of A   symmetry.
 There are   523 symmetry adapted basis functions of A   symmetry.
   523 basis functions,   775 primitive gaussians,   588 cartesian basis functions
    47 alpha electrons       46 beta electrons
       nuclear repulsion energy       719.1576395820 Hartrees.
 NAtoms=   22 NActive=   22 NUniq=   22 SFac= 1.00D+00 NAtFMM=   60 NAOKFM=F Big=F
 Integral buffers will be    131072 words long.
 Raffenetti 2 integral format.
 Two-electron integral symmetry is turned on.
 One-electron integrals computed using PRISM.
 NBasis=   523 RedAO= T EigKep=  1.30D-06  NBF=   523
 NBsUse=   521 1.00D-06 EigRej=  5.83D-07 NBFU=   521
 Initial guess from the checkpoint file:  "/scratch/dinius.ab/QMscratch/Gau-29943.chk"
 B after Tr=     0.000000   -0.000000    0.000000
         Rot=    0.999986   -0.004138    0.000251    0.003254 Ang=  -0.60 deg.
 Initial guess <Sx>= 0.0000 <Sy>= 0.0000 <Sz>= 0.5000 <S**2>= 0.7553 S= 0.5026
 ExpMin= 4.38D-02 ExpMax= 8.59D+03 ExpMxC= 1.30D+03 IAcc=2 IRadAn=         4 AccDes= 0.00D+00
 Harris functional with IExCor= 1009 and IRadAn=       4 diagonalized for initial guess.
 HarFok:  IExCor= 1009 AccDes= 0.00D+00 IRadAn=         4 IDoV= 1 UseB2=F ITyADJ=14
 ICtDFT=  3500011 ScaDFX=  1.000000  1.000000  1.000000  1.000000
 FoFCou: FMM=F IPFlag=           0 FMFlag=      100000 FMFlg1=           0
         NFxFlg=           0 DoJE=T BraDBF=F KetDBF=T FulRan=T
         wScrn=  0.000000 ICntrl=       500 IOpCl=  0 I1Cent=   200000004 NGrid=           0
         NMat0=    1 NMatS0=      1 NMatT0=    0 NMatD0=    1 NMtDS0=    0 NMtDT0=    0
 Petite list used in FoFCou.
 Requested convergence on RMS density matrix=1.00D-08 within 128 cycles.
 Requested convergence on MAX density matrix=1.00D-06.
 Requested convergence on             energy=1.00D-06.
 No special actions if energy rises.
 SCF Done:  E(UM062X) =  -611.979874695     A.U. after   16 cycles
            NFock= 16  Conv=0.85D-08     -V/T= 2.0036
 <Sx>= 0.0000 <Sy>= 0.0000 <Sz>= 0.5000 <S**2>= 0.7552 S= 0.5026
 <L.S>= 0.000000000000E+00
 Annihilation of the first spin contaminant:
 S**2 before annihilation     0.7552,   after     0.7500
 Calling FoFJK, ICntrl=      2127 FMM=F ISym2X=0 I1Cent= 0 IOpClX= 1 NMat=1 NMatS=1 NMatT=0.
