 Entering Gaussian System, Link 0=g16
 Input=rxn932.com
 Output=rxn932.log
