 Entering Gaussian System, Link 0=g16
 Input=rxn921.com
 Output=rxn921.log
 Initial command:
 /shared/centos7/gaussian/g16/l1.exe "/scratch/dinius.ab/QMscratch/Gau-35908.inp" -scrdir="/scratch/dinius.ab/QMscratch/"
 Entering Link 1 = /shared/centos7/gaussian/g16/l1.exe PID=     35909.
  
 Copyright (c) 1988,1990,1992,1993,1995,1998,2003,2009,2016,
            Gaussian, Inc.  All Rights Reserved.
  
 This is part of the Gaussian(R) 16 program.  It is based on
 the Gaussian(R) 09 system (copyright 2009, Gaussian, Inc.),
 the Gaussian(R) 03 system (copyright 2003, Gaussian, Inc.),
 the Gaussian(R) 98 system (copyright 1998, Gaussian, Inc.),
 the Gaussian(R) 94 system (copyright 1995, Gaussian, Inc.),
 the Gaussian 92(TM) system (copyright 1992, Gaussian, Inc.),
 the Gaussian 90(TM) system (copyright 1990, Gaussian, Inc.),
 the Gaussian 88(TM) system (copyright 1988, Gaussian, Inc.),
 the Gaussian 86(TM) system (copyright 1986, Carnegie Mellon
 University), and the Gaussian 82(TM) system (copyright 1983,
 Carnegie Mellon University). Gaussian is a federally registered
 trademark of Gaussian, Inc.
  
 This software contains proprietary and confidential information,
 including trade secrets, belonging to Gaussian, Inc.
  
 This software is provided under written license and may be
 used, copied, transmitted, or stored only in accord with that
 written license.
  
 The following legend is applicable only to US Government
 contracts under FAR:
  
                    RESTRICTED RIGHTS LEGEND
  
 Use, reproduction and disclosure by the US Government is
 subject to restrictions as set forth in subparagraphs (a)
 and (c) of the Commercial Computer Software - Restricted
 Rights clause in FAR 52.227-19.
  
 Gaussian, Inc.
 340 Quinnipiac St., Bldg. 40, Wallingford CT 06492
  
  
 ---------------------------------------------------------------
 Warning -- This program may not be used in any manner that
 competes with the business of Gaussian, Inc. or will provide
 assistance to any competitor of Gaussian, Inc.  The licensee
 of this program is prohibited from giving any competitor of
 Gaussian, Inc. access to this program.  By using this program,
 the user acknowledges that Gaussian, Inc. is engaged in the
 business of creating and licensing software in the field of
 computational chemistry and represents and warrants to the
 licensee that it is not a competitor of Gaussian, Inc. and that
 it will not use this program in any manner prohibited above.
 ---------------------------------------------------------------
  

 Cite this work as:
 Gaussian 16, Revision A.03,
 M. J. Frisch, G. W. Trucks, H. B. Schlegel, G. E. Scuseria, 
 M. A. Robb, J. R. Cheeseman, G. Scalmani, V. Barone, 
 G. A. Petersson, H. Nakatsuji, X. Li, M. Caricato, A. V. Marenich, 
 J. Bloino, B. G. Janesko, R. Gomperts, B. Mennucci, H. P. Hratchian, 
 J. V. Ortiz, A. F. Izmaylov, J. L. Sonnenberg, D. Williams-Young, 
 F. Ding, F. Lipparini, F. Egidi, J. Goings, B. Peng, A. Petrone, 
 T. Henderson, D. Ranasinghe, V. G. Zakrzewski, J. Gao, N. Rega, 
 G. Zheng, W. Liang, M. Hada, M. Ehara, K. Toyota, R. Fukuda, 
 J. Hasegawa, M. Ishida, T. Nakajima, Y. Honda, O. Kitao, H. Nakai, 
 T. Vreven, K. Throssell, J. A. Montgomery, Jr., J. E. Peralta, 
 F. Ogliaro, M. J. Bearpark, J. J. Heyd, E. N. Brothers, K. N. Kudin, 
 V. N. Staroverov, T. A. Keith, R. Kobayashi, J. Normand, 
 K. Raghavachari, A. P. Rendell, J. C. Burant, S. S. Iyengar, 
 J. Tomasi, M. Cossi, J. M. Millam, M. Klene, C. Adamo, R. Cammi, 
 J. W. Ochterski, R. L. Martin, K. Morokuma, O. Farkas, 
 J. B. Foresman, and D. J. Fox, Gaussian, Inc., Wallingford CT, 2016.
 
 ******************************************
 Gaussian 16:  EM64L-G16RevA.03 25-Dec-2016
                18-Jan-2019 
 ******************************************
 ----------------------------------------------------------------------
 #m062x/6-311+g(2df,2p) Opt=(ModRedun,Loose,maxcycle=1000) Int(Grid=SG1
 ) freq
 ----------------------------------------------------------------------
 1/6=1000,7=-1,18=120,19=15,26=2,38=1/1,3;
 2/9=110,12=2,17=6,18=5,40=1/2;
 3/5=4,6=6,7=214,11=2,25=1,30=1,71=1,74=-55,75=1/1,2,3;
 4//1;
 5/5=2,38=5/2;
 6/7=2,8=2,9=2,10=2,28=1/1;
 7//1,2,3,16;
 1/6=1000,7=-1,18=20,19=15,26=2/3(2);
 2/9=110/2;
 99//99;
 2/9=110/2;
 3/5=4,6=6,7=214,11=2,25=1,30=1,71=1,74=-55,75=1/1,2,3;
 4/5=5,16=3,69=1/1;
 5/5=2,38=5/2;
 7//1,2,3,16;
 1/6=1000,7=-1,18=20,19=15,26=2/3(-5);
 2/9=110/2;
 6/7=2,8=2,9=2,10=2,19=2,28=1/1;
 99/9=1/99;
 -----
 Title
 -----
 Symbolic Z-matrix:
 Charge =  0 Multiplicity = 2
 C                    -9.24453   1.0618   -0.16857 
 C                    -8.73952   0.27782   0.86501 
 C                    -8.3844    1.86691  -0.90806 
 C                    -7.0194    1.88625  -0.61118 
 C                    -6.48244   1.10396   0.4319 
 C                    -7.37259   0.29758   1.16251 
 H                    -8.77153   2.48056  -1.71699 
 H                    -6.36347   2.52067  -1.20518 
 H                    -7.02427  -0.33029   1.97921 
 C                    -4.96555   1.16106   0.71287 
 C                    -4.48689   2.45544   1.09786 
 C                    -4.19097   0.52153  -0.31652 
 H                    -4.91172   0.47034   1.64277 
 C                    -3.3004    2.99796   0.59891 
 H                    -5.06464   3.04193   1.81237 
 C                    -3.00593   1.07056  -0.81765 
 H                    -4.53069  -0.43863  -0.70884 
 C                    -2.55903   2.30217  -0.34903 
 H                    -1.64106   2.73568  -0.73485 
 H                    -2.44111   0.53798  -1.57846 
 O                    -4.55428  -0.11251   2.36493 
 O                    -4.85972   0.39938   3.69651 
 H                    -3.98688   0.80219   3.85684 
 H                    -10.30676   1.04446  -0.39692 
 H                    -9.40871  -0.35266   1.44511 
 
 The following ModRedundant input section has been read:
 B      13      21 F                                                           
 

 GradGradGradGradGradGradGradGradGradGradGradGradGradGradGradGradGradGrad
 Berny optimization.
 Initialization pass.
                           ----------------------------
                           !    Initial Parameters    !
                           ! (Angstroms and Degrees)  !
 --------------------------                            --------------------------
 ! Name  Definition              Value          Derivative Info.                !
 --------------------------------------------------------------------------------
 ! R1    R(1,2)                  1.3921         estimate D2E/DX2                !
 ! R2    R(1,3)                  1.391          estimate D2E/DX2                !
 ! R3    R(1,24)                 1.0866         estimate D2E/DX2                !
 ! R4    R(2,6)                  1.3991         estimate D2E/DX2                !
 ! R5    R(2,25)                 1.0871         estimate D2E/DX2                !
 ! R6    R(3,4)                  1.397          estimate D2E/DX2                !
 ! R7    R(3,7)                  1.0866         estimate D2E/DX2                !
 ! R8    R(4,5)                  1.4101         estimate D2E/DX2                !
 ! R9    R(4,8)                  1.0888         estimate D2E/DX2                !
 ! R10   R(5,6)                  1.4058         estimate D2E/DX2                !
 ! R11   R(5,10)                 1.5437         estimate D2E/DX2                !
 ! R12   R(6,9)                  1.0874         estimate D2E/DX2                !
 ! R13   R(10,11)                1.4327         estimate D2E/DX2                !
 ! R14   R(10,12)                1.4383         estimate D2E/DX2                !
 ! R15   R(10,13)                1.1596         estimate D2E/DX2                !
 ! R16   R(11,14)                1.3968         estimate D2E/DX2                !
 ! R17   R(11,15)                1.0901         estimate D2E/DX2                !
 ! R18   R(12,16)                1.3989         estimate D2E/DX2                !
 ! R19   R(12,17)                1.0914         estimate D2E/DX2                !
 ! R20   R(13,21)                0.9945         Frozen                          !
 ! R21   R(14,18)                1.3901         estimate D2E/DX2                !
 ! R22   R(16,18)                1.3915         estimate D2E/DX2                !
 ! R23   R(16,20)                1.087          estimate D2E/DX2                !
 ! R24   R(18,19)                1.086          estimate D2E/DX2                !
 ! R25   R(21,22)                1.4589         estimate D2E/DX2                !
 ! R26   R(22,23)                0.9746         estimate D2E/DX2                !
 ! A1    A(2,1,3)              119.7589         estimate D2E/DX2                !
 ! A2    A(2,1,24)             120.1097         estimate D2E/DX2                !
 ! A3    A(3,1,24)             120.1314         estimate D2E/DX2                !
 ! A4    A(1,2,6)              120.2888         estimate D2E/DX2                !
 ! A5    A(1,2,25)             119.966          estimate D2E/DX2                !
 ! A6    A(6,2,25)             119.7452         estimate D2E/DX2                !
 ! A7    A(1,3,4)              119.9478         estimate D2E/DX2                !
 ! A8    A(1,3,7)              120.1536         estimate D2E/DX2                !
 ! A9    A(4,3,7)              119.8986         estimate D2E/DX2                !
 ! A10   A(3,4,5)              121.4386         estimate D2E/DX2                !
 ! A11   A(3,4,8)              118.7332         estimate D2E/DX2                !
 ! A12   A(5,4,8)              119.8281         estimate D2E/DX2                !
 ! A13   A(4,5,6)              117.4864         estimate D2E/DX2                !
 ! A14   A(4,5,10)             119.2283         estimate D2E/DX2                !
 ! A15   A(6,5,10)             123.284          estimate D2E/DX2                !
 ! A16   A(2,6,5)              121.0793         estimate D2E/DX2                !
 ! A17   A(2,6,9)              117.6775         estimate D2E/DX2                !
 ! A18   A(5,6,9)              121.243          estimate D2E/DX2                !
 ! A19   A(5,10,11)            114.2423         estimate D2E/DX2                !
 ! A20   A(5,10,12)            112.4868         estimate D2E/DX2                !
 ! A21   A(5,10,13)             99.7606         estimate D2E/DX2                !
 ! A22   A(11,10,12)           114.4631         estimate D2E/DX2                !
 ! A23   A(11,10,13)           107.8867         estimate D2E/DX2                !
 ! A24   A(12,10,13)           106.5038         estimate D2E/DX2                !
 ! A25   A(10,11,14)           122.5948         estimate D2E/DX2                !
 ! A26   A(10,11,15)           119.0206         estimate D2E/DX2                !
 ! A27   A(14,11,15)           118.3836         estimate D2E/DX2                !
 ! A28   A(10,12,16)           122.5544         estimate D2E/DX2                !
 ! A29   A(10,12,17)           118.7382         estimate D2E/DX2                !
 ! A30   A(16,12,17)           118.6971         estimate D2E/DX2                !
 ! A31   A(10,13,21)           161.4598         estimate D2E/DX2                !
 ! A32   A(11,14,18)           120.1462         estimate D2E/DX2                !
 ! A33   A(12,16,18)           119.9216         estimate D2E/DX2                !
 ! A34   A(12,16,20)           119.9098         estimate D2E/DX2                !
 ! A35   A(18,16,20)           120.1665         estimate D2E/DX2                !
 ! A36   A(14,18,16)           120.0929         estimate D2E/DX2                !
 ! A37   A(14,18,19)           119.5549         estimate D2E/DX2                !
 ! A38   A(16,18,19)           120.3406         estimate D2E/DX2                !
 ! A39   A(13,21,22)           112.4513         estimate D2E/DX2                !
 ! A40   A(21,22,23)            96.1809         estimate D2E/DX2                !
 ! D1    D(3,1,2,6)              0.0424         estimate D2E/DX2                !
 ! D2    D(3,1,2,25)          -179.9994         estimate D2E/DX2                !
 ! D3    D(24,1,2,6)          -179.9797         estimate D2E/DX2                !
 ! D4    D(24,1,2,25)           -0.0216         estimate D2E/DX2                !
 ! D5    D(2,1,3,4)             -0.0223         estimate D2E/DX2                !
 ! D6    D(2,1,3,7)            179.9289         estimate D2E/DX2                !
 ! D7    D(24,1,3,4)           179.9999         estimate D2E/DX2                !
 ! D8    D(24,1,3,7)            -0.049          estimate D2E/DX2                !
 ! D9    D(1,2,6,5)              0.0591         estimate D2E/DX2                !
 ! D10   D(1,2,6,9)            179.9198         estimate D2E/DX2                !
 ! D11   D(25,2,6,5)          -179.8991         estimate D2E/DX2                !
 ! D12   D(25,2,6,9)            -0.0384         estimate D2E/DX2                !
 ! D13   D(1,3,4,5)             -0.1            estimate D2E/DX2                !
 ! D14   D(1,3,4,8)            179.7618         estimate D2E/DX2                !
 ! D15   D(7,3,4,5)            179.9488         estimate D2E/DX2                !
 ! D16   D(7,3,4,8)             -0.1895         estimate D2E/DX2                !
 ! D17   D(3,4,5,6)              0.1951         estimate D2E/DX2                !
 ! D18   D(3,4,5,10)           179.8039         estimate D2E/DX2                !
 ! D19   D(8,4,5,6)           -179.6652         estimate D2E/DX2                !
 ! D20   D(8,4,5,10)            -0.0564         estimate D2E/DX2                !
 ! D21   D(4,5,6,2)             -0.1741         estimate D2E/DX2                !
 ! D22   D(4,5,6,9)            179.9702         estimate D2E/DX2                !
 ! D23   D(10,5,6,2)          -179.7657         estimate D2E/DX2                !
 ! D24   D(10,5,6,9)             0.3786         estimate D2E/DX2                !
 ! D25   D(4,5,10,11)           61.8257         estimate D2E/DX2                !
 ! D26   D(4,5,10,12)          -70.8563         estimate D2E/DX2                !
 ! D27   D(4,5,10,13)          176.613          estimate D2E/DX2                !
 ! D28   D(6,5,10,11)         -118.5894         estimate D2E/DX2                !
 ! D29   D(6,5,10,12)          108.7285         estimate D2E/DX2                !
 ! D30   D(6,5,10,13)           -3.8022         estimate D2E/DX2                !
 ! D31   D(5,10,11,14)        -137.1088         estimate D2E/DX2                !
 ! D32   D(5,10,11,15)          43.2479         estimate D2E/DX2                !
 ! D33   D(12,10,11,14)         -5.3731         estimate D2E/DX2                !
 ! D34   D(12,10,11,15)        174.9836         estimate D2E/DX2                !
 ! D35   D(13,10,11,14)        112.9717         estimate D2E/DX2                !
 ! D36   D(13,10,11,15)        -66.6716         estimate D2E/DX2                !
 ! D37   D(5,10,12,16)         137.6869         estimate D2E/DX2                !
 ! D38   D(5,10,12,17)         -43.4968         estimate D2E/DX2                !
 ! D39   D(11,10,12,16)          5.1135         estimate D2E/DX2                !
 ! D40   D(11,10,12,17)       -176.0702         estimate D2E/DX2                !
 ! D41   D(13,10,12,16)       -114.0119         estimate D2E/DX2                !
 ! D42   D(13,10,12,17)         64.8044         estimate D2E/DX2                !
 ! D43   D(5,10,13,21)         165.1674         estimate D2E/DX2                !
 ! D44   D(11,10,13,21)        -75.2746         estimate D2E/DX2                !
 ! D45   D(12,10,13,21)         48.0554         estimate D2E/DX2                !
 ! D46   D(10,11,14,18)          2.6019         estimate D2E/DX2                !
 ! D47   D(15,11,14,18)       -177.7526         estimate D2E/DX2                !
 ! D48   D(10,12,16,18)         -2.0762         estimate D2E/DX2                !
 ! D49   D(10,12,16,20)        178.4564         estimate D2E/DX2                !
 ! D50   D(17,12,16,18)        179.107          estimate D2E/DX2                !
 ! D51   D(17,12,16,20)         -0.3604         estimate D2E/DX2                !
 ! D52   D(10,13,21,22)        120.9474         estimate D2E/DX2                !
 ! D53   D(11,14,18,16)          0.87           estimate D2E/DX2                !
 ! D54   D(11,14,18,19)        179.6339         estimate D2E/DX2                !
 ! D55   D(12,16,18,14)         -1.1183         estimate D2E/DX2                !
 ! D56   D(12,16,18,19)       -179.8724         estimate D2E/DX2                !
 ! D57   D(20,16,18,14)        178.3478         estimate D2E/DX2                !
 ! D58   D(20,16,18,19)         -0.4064         estimate D2E/DX2                !
 ! D59   D(13,21,22,23)        -99.9022         estimate D2E/DX2                !
 --------------------------------------------------------------------------------
 Trust Radius=3.00D-01 FncErr=1.00D-05 GrdErr=1.00D-04 EigMax=2.50D+02 EigMin=1.00D-04
 Number of steps in this run=    150 maximum allowed number of steps=    150.
 GradGradGradGradGradGradGradGradGradGradGradGradGradGradGradGradGradGrad

                          Input orientation:                          
 ---------------------------------------------------------------------
 Center     Atomic      Atomic             Coordinates (Angstroms)
 Number     Number       Type             X           Y           Z
 ---------------------------------------------------------------------
      1          6           0       -9.244530    1.061800   -0.168570
      2          6           0       -8.739520    0.277820    0.865010
      3          6           0       -8.384400    1.866910   -0.908060
      4          6           0       -7.019400    1.886250   -0.611180
      5          6           0       -6.482440    1.103960    0.431900
      6          6           0       -7.372590    0.297580    1.162510
      7          1           0       -8.771530    2.480560   -1.716990
      8          1           0       -6.363470    2.520670   -1.205180
      9          1           0       -7.024270   -0.330290    1.979210
     10          6           0       -4.965550    1.161060    0.712870
     11          6           0       -4.486890    2.455440    1.097860
     12          6           0       -4.190970    0.521530   -0.316520
     13          1           0       -4.911720    0.470340    1.642770
     14          6           0       -3.300400    2.997960    0.598910
     15          1           0       -5.064640    3.041930    1.812370
     16          6           0       -3.005930    1.070560   -0.817650
     17          1           0       -4.530690   -0.438630   -0.708840
     18          6           0       -2.559030    2.302170   -0.349030
     19          1           0       -1.641060    2.735680   -0.734850
     20          1           0       -2.441110    0.537980   -1.578460
     21          8           0       -4.554280   -0.112510    2.364930
     22          8           0       -4.859720    0.399380    3.696510
     23          1           0       -3.986880    0.802190    3.856840
     24          1           0      -10.306760    1.044460   -0.396920
     25          1           0       -9.408710   -0.352660    1.445110
 ---------------------------------------------------------------------
                    Distance matrix (angstroms):
                    1          2          3          4          5
     1  C    0.000000
     2  C    1.392102   0.000000
     3  C    1.390996   2.407300   0.000000
     4  C    2.413882   2.779388   1.397046   0.000000
     5  C    2.826921   2.442233   2.448477   1.410078   0.000000
     6  C    2.420737   1.399069   2.788156   2.407196   1.405847
     7  H    2.152722   3.394085   1.086648   2.155453   3.428219
     8  H    3.391662   3.868033   2.144724   1.088838   2.168237
     9  H    3.388278   2.133851   3.874786   3.409281   2.178261
    10  C    4.369950   3.878931   3.848918   2.548982   1.543749
    11  C    5.116758   4.783420   4.422744   3.107797   2.500444
    12  C    5.084511   4.705817   4.443515   3.154251   2.479958
    13  H    4.733288   3.910758   4.529531   3.395203   2.082028
    14  C    6.298446   6.087199   5.421927   4.065855   3.706819
    15  H    5.031552   4.694948   4.449968   3.321186   2.769762
    16  C    6.272281   6.027755   5.437857   4.100722   3.694403
    17  H    4.976291   4.550226   4.495140   3.407093   2.736823
    18  C    6.801985   6.615916   5.868296   4.487384   4.175968
    19  H    7.806107   7.680414   6.801279   5.446409   5.240494
    20  H    6.967690   6.760784   6.126842   4.869723   4.549091
    21  O    5.458578   4.462998   5.412983   4.350757   2.989014
    22  O    5.882534   4.804687   5.981562   5.042935   3.713130
    23  H    6.626780   5.640354   6.570851   5.507682   4.248423
    24  H    1.086636   2.153241   2.152477   3.400184   3.913554
    25  H    2.152119   1.087123   3.393098   3.866503   3.422191
                    6          7          8          9         10
     6  C    0.000000
     7  H    3.874785   0.000000
     8  H    3.400942   2.462176   0.000000
     9  H    1.087450   4.961420   4.324924   0.000000
    10  C    2.596462   4.704337   2.735258   2.840083   0.000000
    11  C    3.603860   5.126612   2.971498   3.869802   1.432743
    12  C    3.515735   5.175002   3.083186   3.744805   1.438269
    13  H    2.513240   5.497918   3.797664   2.284090   1.159615
    14  C    4.918580   5.963586   3.586774   5.181668   2.481917
    15  H    3.644229   5.149034   3.326301   3.903825   2.180915
    16  C    4.856568   6.003254   3.677781   5.092334   2.488130
    17  H    3.481430   5.246214   3.516091   3.668146   2.183889
    18  C    5.428950   6.363827   3.905701   5.682334   2.867246
    19  H    6.511125   7.202311   4.750642   6.763523   3.953170
    20  H    5.647141   6.623219   4.410817   5.866538   3.465721
    21  O    3.091417   6.416485   4.790876   2.509394   2.126129
    22  O    3.570159   6.995681   5.548667   2.857764   3.081147
    23  H    4.356269   7.535077   5.850248   3.746164   3.312270
    24  H    3.405731   2.482317   4.287425   4.279097   5.456533
    25  H    2.156029   4.293252   4.955154   2.443628   4.750705
                   11         12         13         14         15
    11  C    0.000000
    12  C    2.414135   0.000000
    13  H    2.101911   2.088281   0.000000
    14  C    1.396795   2.786365   3.174092   0.000000
    15  H    1.090087   3.412900   2.581709   2.141719   0.000000
    16  C    2.789321   1.398887   3.169537   2.410026   3.878349
    17  H    3.411997   1.091436   2.549800   3.877367   4.330808
    18  C    2.415290   2.415567   3.585808   1.390088   3.390719
    19  H    3.396485   3.402867   4.634874   2.145021   4.278203
    20  H    3.876152   2.157492   4.060149   3.395706   4.964917
    21  O    2.864328   2.779240   0.994481   3.790259   3.242882
    22  O    3.334571   4.070204   2.055623   4.333500   3.251930
    23  H    3.255029   4.187763   2.422305   3.988329   3.218363
    24  H    6.172205   6.138632   5.796241   7.341452   6.029152
    25  H    5.677175   5.576052   4.575950   7.018131   5.525311
                   16         17         18         19         20
    16  C    0.000000
    17  H    2.148112   0.000000
    18  C    1.391470   3.395422   0.000000
    19  H    2.154611   4.292654   1.086028   0.000000
    20  H    1.086966   2.465025   2.153548   2.486291   0.000000
    21  O    3.731737   3.091112   4.144548   5.119343   4.520946
    22  O    4.925917   4.496402   5.027940   5.954412   5.804670
    23  H    4.783842   4.762436   4.688074   5.506802   5.657004
    24  H    7.312989   5.971586   7.849296   8.835654   7.970007
    25  H    6.938388   5.333101   7.562088   8.638661   7.647396
                   21         22         23         24         25
    21  O    0.000000
    22  O    1.458914   0.000000
    23  H    1.839678   0.974583   0.000000
    24  H    6.485169   6.844161   7.621945   0.000000
    25  H    4.946638   5.131050   6.045359   2.480224   0.000000
 Stoichiometry    C12H11O2(2)
 Framework group  C1[X(C12H11O2)]
 Deg. of freedom    69
 Full point group                 C1      NOp   1
 Largest Abelian subgroup         C1      NOp   1
 Largest concise Abelian subgroup C1      NOp   1
                         Standard orientation:                         
 ---------------------------------------------------------------------
 Center     Atomic      Atomic             Coordinates (Angstroms)
 Number     Number       Type             X           Y           Z
 ---------------------------------------------------------------------
      1          6           0       -3.654975   -0.546979   -0.063893
      2          6           0       -3.147715    0.706557    0.266684
      3          6           0       -2.782029   -1.592975   -0.344477
      4          6           0       -1.401903   -1.382142   -0.294097
      5          6           0       -0.861960   -0.121915    0.035464
      6          6           0       -1.765574    0.917698    0.316698
      7          1           0       -3.171001   -2.574368   -0.602108
      8          1           0       -0.736691   -2.215766   -0.513486
      9          1           0       -1.415877    1.913633    0.578180
     10          6           0        0.671202    0.052842    0.080556
     11          6           0        1.327094   -0.181646   -1.171471
     12          6           0        1.268981   -0.621421    1.201558
     13          1           0        0.733043    1.188277    0.307868
     14          6           0        2.515596   -0.908300   -1.273817
     15          1           0        0.888634    0.225641   -2.082602
     16          6           0        2.456582   -1.352822    1.094123
     17          1           0        0.787666   -0.544016    2.178071
     18          6           0        3.081757   -1.483632   -0.142093
     19          1           0        4.002861   -2.051645   -0.233663
     20          1           0        2.884033   -1.824789    1.975048
     21          8           0        1.088035    2.079247    0.570823
     22          8           0        0.968073    3.064504   -0.498432
     23          1           0        1.892019    3.002652   -0.802256
     24          1           0       -4.728985   -0.707640   -0.102197
     25          1           0       -3.826894    1.526428    0.486602
 ---------------------------------------------------------------------
 Rotational constants (GHZ):           1.0327989           0.5259060           0.4021351
 Standard basis: 6-311+G(2df,2p) (5D, 7F)
 There are   645 symmetry adapted cartesian basis functions of A   symmetry.
 There are   575 symmetry adapted basis functions of A   symmetry.
   575 basis functions,   849 primitive gaussians,   645 cartesian basis functions
    50 alpha electrons       49 beta electrons
       nuclear repulsion energy       823.9293784430 Hartrees.
 NAtoms=   25 NActive=   25 NUniq=   25 SFac= 1.00D+00 NAtFMM=   60 NAOKFM=F Big=F
 Integral buffers will be    131072 words long.
 Raffenetti 2 integral format.
 Two-electron integral symmetry is turned on.
 One-electron integrals computed using PRISM.
 NBasis=   575 RedAO= T EigKep=  1.90D-06  NBF=   575
 NBsUse=   574 1.00D-06 EigRej=  8.45D-07 NBFU=   574
 ExpMin= 4.38D-02 ExpMax= 8.59D+03 ExpMxC= 1.30D+03 IAcc=2 IRadAn=         4 AccDes= 0.00D+00
 Harris functional with IExCor= 1009 and IRadAn=       4 diagonalized for initial guess.
 HarFok:  IExCor= 1009 AccDes= 0.00D+00 IRadAn=         4 IDoV= 1 UseB2=F ITyADJ=14
 ICtDFT=  3500011 ScaDFX=  1.000000  1.000000  1.000000  1.000000
 FoFCou: FMM=F IPFlag=           0 FMFlag=      100000 FMFlg1=           0
         NFxFlg=           0 DoJE=T BraDBF=F KetDBF=T FulRan=T
         wScrn=  0.000000 ICntrl=       500 IOpCl=  0 I1Cent=   200000004 NGrid=           0
         NMat0=    1 NMatS0=      1 NMatT0=    0 NMatD0=    1 NMtDS0=    0 NMtDT0=    0
 Petite list used in FoFCou.
 Initial guess <Sx>= 0.0000 <Sy>= 0.0000 <Sz>= 0.5000 <S**2>= 0.7500 S= 0.5000
 Requested convergence on RMS density matrix=1.00D-08 within 128 cycles.
 Requested convergence on MAX density matrix=1.00D-06.
 Requested convergence on             energy=1.00D-06.
 No special actions if energy rises.
