 Entering Gaussian System, Link 0=g16
 Input=rxn931.com
 Output=rxn931.log
