 Entering Gaussian System, Link 0=g16
 Input=rxn905.com
 Output=rxn905.log
 Initial command:
 /shared/centos7/gaussian/g16/l1.exe "/scratch/dinius.ab/QMscratch/Gau-9269.inp" -scrdir="/scratch/dinius.ab/QMscratch/"
 Entering Link 1 = /shared/centos7/gaussian/g16/l1.exe PID=      9280.
  
 Copyright (c) 1988,1990,1992,1993,1995,1998,2003,2009,2016,
            Gaussian, Inc.  All Rights Reserved.
  
 This is part of the Gaussian(R) 16 program.  It is based on
 the Gaussian(R) 09 system (copyright 2009, Gaussian, Inc.),
 the Gaussian(R) 03 system (copyright 2003, Gaussian, Inc.),
 the Gaussian(R) 98 system (copyright 1998, Gaussian, Inc.),
 the Gaussian(R) 94 system (copyright 1995, Gaussian, Inc.),
 the Gaussian 92(TM) system (copyright 1992, Gaussian, Inc.),
 the Gaussian 90(TM) system (copyright 1990, Gaussian, Inc.),
 the Gaussian 88(TM) system (copyright 1988, Gaussian, Inc.),
 the Gaussian 86(TM) system (copyright 1986, Carnegie Mellon
 University), and the Gaussian 82(TM) system (copyright 1983,
 Carnegie Mellon University). Gaussian is a federally registered
 trademark of Gaussian, Inc.
  
 This software contains proprietary and confidential information,
 including trade secrets, belonging to Gaussian, Inc.
  
 This software is provided under written license and may be
 used, copied, transmitted, or stored only in accord with that
 written license.
  
 The following legend is applicable only to US Government
 contracts under FAR:
  
                    RESTRICTED RIGHTS LEGEND
  
 Use, reproduction and disclosure by the US Government is
 subject to restrictions as set forth in subparagraphs (a)
 and (c) of the Commercial Computer Software - Restricted
 Rights clause in FAR 52.227-19.
  
 Gaussian, Inc.
 340 Quinnipiac St., Bldg. 40, Wallingford CT 06492
  
  
 ---------------------------------------------------------------
 Warning -- This program may not be used in any manner that
 competes with the business of Gaussian, Inc. or will provide
 assistance to any competitor of Gaussian, Inc.  The licensee
 of this program is prohibited from giving any competitor of
 Gaussian, Inc. access to this program.  By using this program,
 the user acknowledges that Gaussian, Inc. is engaged in the
 business of creating and licensing software in the field of
 computational chemistry and represents and warrants to the
 licensee that it is not a competitor of Gaussian, Inc. and that
 it will not use this program in any manner prohibited above.
 ---------------------------------------------------------------
  

 Cite this work as:
 Gaussian 16, Revision A.03,
 M. J. Frisch, G. W. Trucks, H. B. Schlegel, G. E. Scuseria, 
 M. A. Robb, J. R. Cheeseman, G. Scalmani, V. Barone, 
 G. A. Petersson, H. Nakatsuji, X. Li, M. Caricato, A. V. Marenich, 
 J. Bloino, B. G. Janesko, R. Gomperts, B. Mennucci, H. P. Hratchian, 
 J. V. Ortiz, A. F. Izmaylov, J. L. Sonnenberg, D. Williams-Young, 
 F. Ding, F. Lipparini, F. Egidi, J. Goings, B. Peng, A. Petrone, 
 T. Henderson, D. Ranasinghe, V. G. Zakrzewski, J. Gao, N. Rega, 
 G. Zheng, W. Liang, M. Hada, M. Ehara, K. Toyota, R. Fukuda, 
 J. Hasegawa, M. Ishida, T. Nakajima, Y. Honda, O. Kitao, H. Nakai, 
 T. Vreven, K. Throssell, J. A. Montgomery, Jr., J. E. Peralta, 
 F. Ogliaro, M. J. Bearpark, J. J. Heyd, E. N. Brothers, K. N. Kudin, 
 V. N. Staroverov, T. A. Keith, R. Kobayashi, J. Normand, 
 K. Raghavachari, A. P. Rendell, J. C. Burant, S. S. Iyengar, 
 J. Tomasi, M. Cossi, J. M. Millam, M. Klene, C. Adamo, R. Cammi, 
 J. W. Ochterski, R. L. Martin, K. Morokuma, O. Farkas, 
 J. B. Foresman, and D. J. Fox, Gaussian, Inc., Wallingford CT, 2016.
 
 ******************************************
 Gaussian 16:  EM64L-G16RevA.03 25-Dec-2016
                22-Jan-2019 
 ******************************************
 ----------------------------------------------------------------------
 #m062x/6-311+g(2df,2p) Opt=(ModRedun,Loose,maxcycle=1000) Int(Grid=SG1
 ) freq
 ----------------------------------------------------------------------
 1/6=1000,7=-1,18=120,19=15,26=2,38=1/1,3;
 2/9=110,12=2,17=6,18=5,40=1/2;
 3/5=4,6=6,7=214,11=2,25=1,30=1,71=1,74=-55,75=1/1,2,3;
 4//1;
 5/5=2,38=5/2;
 6/7=2,8=2,9=2,10=2,28=1/1;
 7//1,2,3,16;
 1/6=1000,7=-1,18=20,19=15,26=2/3(2);
 2/9=110/2;
 99//99;
 2/9=110/2;
 3/5=4,6=6,7=214,11=2,25=1,30=1,71=1,74=-55,75=1/1,2,3;
 4/5=5,16=3,69=1/1;
 5/5=2,38=5/2;
 7//1,2,3,16;
 1/6=1000,7=-1,18=20,19=15,26=2/3(-5);
 2/9=110/2;
 6/7=2,8=2,9=2,10=2,19=2,28=1/1;
 99/9=1/99;
 -----
 Title
 -----
 Symbolic Z-matrix:
 Charge =  0 Multiplicity = 2
 C                    -3.40655  -11.8572  -0.35771 
 C                    -3.78149  -11.82974  -1.69417 
 C                    -2.90061  -10.70448   0.24833 
 H                    -3.5052   -12.77406   0.21737 
 C                    -2.75611  -9.49272  -0.46509 
 H                    -2.61658  -10.7681   1.29569 
 C                    -3.64972  -10.65022  -2.42476 
 H                    -4.175    -12.72378  -2.17008 
 C                    -3.14226  -9.48308  -1.82971 
 H                    -3.94732  -10.64825  -3.47124 
 C                    -2.24654  -8.29667   0.11283 
 C                    -3.01482  -8.30732  -2.58284 
 C                    -2.12788  -7.13827  -0.67218 
 C                    -2.51049  -7.14365  -2.00938 
 H                    -3.30748  -8.28954  -3.63035 
 H                    -1.73382  -6.21716  -0.24652 
 H                    -2.41452  -6.24013  -2.60568 
 C                    -1.81517  -8.23912   1.56072 
 H                    -2.65647  -8.52924   2.203 
 H                    -0.98537  -8.93955   1.71982 
 H                    -1.48562  -7.22974   1.88207 
 O                    -1.0714   -6.57295   2.48283 
 O                    -1.67017  -5.2558    2.33267 
 H                    -2.14311  -5.25184   3.18428 
 
 The following ModRedundant input section has been read:
 B      21      22 F                                                           
 B      19      21 F                                                           
 

 GradGradGradGradGradGradGradGradGradGradGradGradGradGradGradGradGradGrad
 Berny optimization.
 Initialization pass.
                           ----------------------------
                           !    Initial Parameters    !
                           ! (Angstroms and Degrees)  !
 --------------------------                            --------------------------
 ! Name  Definition              Value          Derivative Info.                !
 --------------------------------------------------------------------------------
 ! R1    R(1,2)                  1.3883         estimate D2E/DX2                !
 ! R2    R(1,3)                  1.3971         estimate D2E/DX2                !
 ! R3    R(1,4)                  1.0868         estimate D2E/DX2                !
 ! R4    R(2,7)                  1.3937         estimate D2E/DX2                !
 ! R5    R(2,8)                  1.0866         estimate D2E/DX2                !
 ! R6    R(3,5)                  1.4136         estimate D2E/DX2                !
 ! R7    R(3,6)                  1.0871         estimate D2E/DX2                !
 ! R8    R(5,9)                  1.4182         estimate D2E/DX2                !
 ! R9    R(5,11)                 1.4227         estimate D2E/DX2                !
 ! R10   R(7,9)                  1.4049         estimate D2E/DX2                !
 ! R11   R(7,10)                 1.088          estimate D2E/DX2                !
 ! R12   R(9,12)                 1.4021         estimate D2E/DX2                !
 ! R13   R(11,13)                1.4044         estimate D2E/DX2                !
 ! R14   R(11,18)                1.5119         estimate D2E/DX2                !
 ! R15   R(12,14)                1.3919         estimate D2E/DX2                !
 ! R16   R(12,15)                1.0878         estimate D2E/DX2                !
 ! R17   R(13,14)                1.3909         estimate D2E/DX2                !
 ! R18   R(13,16)                1.0885         estimate D2E/DX2                !
 ! R19   R(14,17)                1.0868         estimate D2E/DX2                !
 ! R20   R(18,19)                1.0975         estimate D2E/DX2                !
 ! R21   R(18,20)                1.0975         estimate D2E/DX2                !
 ! R22   R(18,21)                1.1094         estimate D2E/DX2                !
 ! R23   R(19,21)                1.7784         Frozen                          !
 ! R24   R(21,22)                0.9818         Frozen                          !
 ! R25   R(22,23)                1.4546         estimate D2E/DX2                !
 ! R26   R(23,24)                0.9741         estimate D2E/DX2                !
 ! A1    A(2,1,3)              119.9366         estimate D2E/DX2                !
 ! A2    A(2,1,4)              120.1035         estimate D2E/DX2                !
 ! A3    A(3,1,4)              119.9599         estimate D2E/DX2                !
 ! A4    A(1,2,7)              119.7245         estimate D2E/DX2                !
 ! A5    A(1,2,8)              120.2092         estimate D2E/DX2                !
 ! A6    A(7,2,8)              120.0663         estimate D2E/DX2                !
 ! A7    A(1,3,5)              121.6922         estimate D2E/DX2                !
 ! A8    A(1,3,6)              117.6624         estimate D2E/DX2                !
 ! A9    A(5,3,6)              120.6453         estimate D2E/DX2                !
 ! A10   A(3,5,9)              117.6199         estimate D2E/DX2                !
 ! A11   A(3,5,11)             123.5214         estimate D2E/DX2                !
 ! A12   A(9,5,11)             118.8586         estimate D2E/DX2                !
 ! A13   A(2,7,9)              121.0113         estimate D2E/DX2                !
 ! A14   A(2,7,10)             118.678          estimate D2E/DX2                !
 ! A15   A(9,7,10)             120.3107         estimate D2E/DX2                !
 ! A16   A(5,9,7)              120.0154         estimate D2E/DX2                !
 ! A17   A(5,9,12)             119.8541         estimate D2E/DX2                !
 ! A18   A(7,9,12)             120.1304         estimate D2E/DX2                !
 ! A19   A(5,11,13)            119.7778         estimate D2E/DX2                !
 ! A20   A(5,11,18)            121.5472         estimate D2E/DX2                !
 ! A21   A(13,11,18)           118.6735         estimate D2E/DX2                !
 ! A22   A(9,12,14)            120.8446         estimate D2E/DX2                !
 ! A23   A(9,12,15)            120.4323         estimate D2E/DX2                !
 ! A24   A(14,12,15)           118.7229         estimate D2E/DX2                !
 ! A25   A(11,13,14)           120.729          estimate D2E/DX2                !
 ! A26   A(11,13,16)           120.6635         estimate D2E/DX2                !
 ! A27   A(14,13,16)           118.6074         estimate D2E/DX2                !
 ! A28   A(12,14,13)           119.9347         estimate D2E/DX2                !
 ! A29   A(12,14,17)           120.0655         estimate D2E/DX2                !
 ! A30   A(13,14,17)           119.9997         estimate D2E/DX2                !
 ! A31   A(11,18,19)           109.3707         estimate D2E/DX2                !
 ! A32   A(11,18,20)           109.2849         estimate D2E/DX2                !
 ! A33   A(11,18,21)           113.3782         estimate D2E/DX2                !
 ! A34   A(19,18,20)           109.0289         estimate D2E/DX2                !
 ! A35   A(19,18,21)           107.3805         estimate D2E/DX2                !
 ! A36   A(20,18,21)           108.3058         estimate D2E/DX2                !
 ! A37   A(18,21,22)           155.6818         estimate D2E/DX2                !
 ! A38   A(21,22,23)           111.649          estimate D2E/DX2                !
 ! A39   A(22,23,24)            96.5045         estimate D2E/DX2                !
 ! D1    D(3,1,2,7)              0.0442         estimate D2E/DX2                !
 ! D2    D(3,1,2,8)            179.9675         estimate D2E/DX2                !
 ! D3    D(4,1,2,7)           -179.9029         estimate D2E/DX2                !
 ! D4    D(4,1,2,8)              0.0203         estimate D2E/DX2                !
 ! D5    D(2,1,3,5)              0.0209         estimate D2E/DX2                !
 ! D6    D(2,1,3,6)           -179.8714         estimate D2E/DX2                !
 ! D7    D(4,1,3,5)            179.9682         estimate D2E/DX2                !
 ! D8    D(4,1,3,6)              0.0759         estimate D2E/DX2                !
 ! D9    D(1,2,7,9)             -0.0225         estimate D2E/DX2                !
 ! D10   D(1,2,7,10)           179.9091         estimate D2E/DX2                !
 ! D11   D(8,2,7,9)           -179.9459         estimate D2E/DX2                !
 ! D12   D(8,2,7,10)            -0.0143         estimate D2E/DX2                !
 ! D13   D(1,3,5,9)             -0.1046         estimate D2E/DX2                !
 ! D14   D(1,3,5,11)           179.9647         estimate D2E/DX2                !
 ! D15   D(6,3,5,9)            179.7845         estimate D2E/DX2                !
 ! D16   D(6,3,5,11)            -0.1462         estimate D2E/DX2                !
 ! D17   D(3,5,9,7)              0.1246         estimate D2E/DX2                !
 ! D18   D(3,5,9,12)          -179.7995         estimate D2E/DX2                !
 ! D19   D(11,5,9,7)          -179.9414         estimate D2E/DX2                !
 ! D20   D(11,5,9,12)            0.1346         estimate D2E/DX2                !
 ! D21   D(3,5,11,13)          179.5643         estimate D2E/DX2                !
 ! D22   D(3,5,11,18)            0.017          estimate D2E/DX2                !
 ! D23   D(9,5,11,13)           -0.3656         estimate D2E/DX2                !
 ! D24   D(9,5,11,18)         -179.9129         estimate D2E/DX2                !
 ! D25   D(2,7,9,5)             -0.0641         estimate D2E/DX2                !
 ! D26   D(2,7,9,12)           179.8597         estimate D2E/DX2                !
 ! D27   D(10,7,9,5)          -179.9946         estimate D2E/DX2                !
 ! D28   D(10,7,9,12)           -0.0708         estimate D2E/DX2                !
 ! D29   D(5,9,12,14)            0.1018         estimate D2E/DX2                !
 ! D30   D(5,9,12,15)          179.9583         estimate D2E/DX2                !
 ! D31   D(7,9,12,14)         -179.8222         estimate D2E/DX2                !
 ! D32   D(7,9,12,15)            0.0344         estimate D2E/DX2                !
 ! D33   D(5,11,13,14)           0.3678         estimate D2E/DX2                !
 ! D34   D(5,11,13,16)        -179.6006         estimate D2E/DX2                !
 ! D35   D(18,11,13,14)        179.928          estimate D2E/DX2                !
 ! D36   D(18,11,13,16)         -0.0404         estimate D2E/DX2                !
 ! D37   D(5,11,18,19)         -57.447          estimate D2E/DX2                !
 ! D38   D(5,11,18,20)          61.8392         estimate D2E/DX2                !
 ! D39   D(5,11,18,21)        -177.245          estimate D2E/DX2                !
 ! D40   D(13,11,18,19)        123.0009         estimate D2E/DX2                !
 ! D41   D(13,11,18,20)       -117.7129         estimate D2E/DX2                !
 ! D42   D(13,11,18,21)          3.2029         estimate D2E/DX2                !
 ! D43   D(9,12,14,13)          -0.1067         estimate D2E/DX2                !
 ! D44   D(9,12,14,17)         179.8268         estimate D2E/DX2                !
 ! D45   D(15,12,14,13)       -179.9656         estimate D2E/DX2                !
 ! D46   D(15,12,14,17)         -0.0321         estimate D2E/DX2                !
 ! D47   D(11,13,14,12)         -0.1304         estimate D2E/DX2                !
 ! D48   D(11,13,14,17)        179.936          estimate D2E/DX2                !
 ! D49   D(16,13,14,12)        179.8386         estimate D2E/DX2                !
 ! D50   D(16,13,14,17)         -0.095          estimate D2E/DX2                !
 ! D51   D(11,18,21,22)       -168.3979         estimate D2E/DX2                !
 ! D52   D(19,18,21,22)         70.6755         estimate D2E/DX2                !
 ! D53   D(20,18,21,22)        -46.9317         estimate D2E/DX2                !
 ! D54   D(18,21,22,23)       -151.2279         estimate D2E/DX2                !
 ! D55   D(21,22,23,24)        108.3705         estimate D2E/DX2                !
 --------------------------------------------------------------------------------
 Trust Radius=3.00D-01 FncErr=1.00D-05 GrdErr=1.00D-04 EigMax=2.50D+02 EigMin=1.00D-04
 Number of steps in this run=    144 maximum allowed number of steps=    144.
 GradGradGradGradGradGradGradGradGradGradGradGradGradGradGradGradGradGrad

                          Input orientation:                          
 ---------------------------------------------------------------------
 Center     Atomic      Atomic             Coordinates (Angstroms)
 Number     Number       Type             X           Y           Z
 ---------------------------------------------------------------------
      1          6           0       -3.406550  -11.857200   -0.357710
      2          6           0       -3.781490  -11.829740   -1.694170
      3          6           0       -2.900610  -10.704480    0.248330
      4          1           0       -3.505200  -12.774060    0.217370
      5          6           0       -2.756110   -9.492720   -0.465090
      6          1           0       -2.616580  -10.768100    1.295690
      7          6           0       -3.649720  -10.650220   -2.424760
      8          1           0       -4.175000  -12.723780   -2.170080
      9          6           0       -3.142260   -9.483080   -1.829710
     10          1           0       -3.947320  -10.648250   -3.471240
     11          6           0       -2.246540   -8.296670    0.112830
     12          6           0       -3.014820   -8.307320   -2.582840
     13          6           0       -2.127880   -7.138270   -0.672180
     14          6           0       -2.510490   -7.143650   -2.009380
     15          1           0       -3.307480   -8.289540   -3.630350
     16          1           0       -1.733820   -6.217160   -0.246520
     17          1           0       -2.414520   -6.240130   -2.605680
     18          6           0       -1.815170   -8.239120    1.560720
     19          1           0       -2.656470   -8.529240    2.203000
     20          1           0       -0.985370   -8.939550    1.719820
     21          1           0       -1.485620   -7.229740    1.882070
     22          8           0       -1.071400   -6.572950    2.482830
     23          8           0       -1.670170   -5.255800    2.332670
     24          1           0       -2.143110   -5.251840    3.184280
 ---------------------------------------------------------------------
                    Distance matrix (angstroms):
                    1          2          3          4          5
     1  C    0.000000
     2  C    1.388330   0.000000
     3  C    1.397148   2.411528   0.000000
     4  H    1.086776   2.149898   2.156304   0.000000
     5  C    2.454663   2.832614   1.413581   3.434251   0.000000
     6  H    2.131648   3.379846   1.087053   2.444646   2.178625
     7  C    2.405957   1.393697   2.776602   3.392998   2.445128
     8  H    2.150851   1.086576   3.398580   2.480137   3.919182
     9  C    2.805901   2.435939   2.422491   3.892661   1.418236
    10  H    3.383498   2.140420   3.864449   4.280232   3.433827
    11  C    3.774176   4.254868   2.498743   4.652115   1.422740
    12  C    4.207886   3.712810   3.711461   5.294659   2.440690
    13  C    4.899203   5.078265   3.763284   5.869450   2.445607
    14  C    5.074297   4.865618   4.234260   6.135909   2.821930
    15  H    4.842333   4.062819   4.587116   5.912272   3.430819
    16  H    5.883914   6.147333   4.662866   6.807784   3.438334
    17  H    6.130984   5.826079   5.320909   7.200794   3.908728
    18  C    4.393560   5.230036   2.996422   5.022596   2.561403
    19  H    4.265580   5.229427   2.934622   4.762517   2.838472
    20  H    4.323300   5.275113   2.991388   4.828081   2.866243
    21  H    5.488167   6.262628   4.092080   6.131021   3.499198
    22  O    6.437771   7.240563   5.040688   7.036296   4.478118
    23  O    7.337005   7.993110   5.962094   8.022846   5.192130
    24  H    7.600839   8.351786   6.238982   8.200100   5.628386
                    6          7          8          9         10
     6  H    0.000000
     7  C    3.863033   0.000000
     8  H    4.273748   2.154166   0.000000
     9  C    3.419904   1.404926   3.418266   0.000000
    10  H    4.950642   1.087975   2.460220   2.168032   0.000000
    11  C    2.764788   3.734632   5.341342   2.446088   4.611739
    12  C    4.610534   2.432543   4.584922   1.402090   2.671847
    13  C    4.157765   4.209671   6.134519   2.804813   4.844075
    14  C    4.906259   3.710312   5.825313   2.429886   4.060017
    15  H    5.557560   2.672711   4.748417   2.166596   2.449127
    16  H    4.885564   5.297870   7.210794   3.893126   5.910411
    17  H    5.980303   4.583377   6.732515   3.412984   4.746598
    18  C    2.666128   5.006299   6.292841   3.847547   5.972486
    19  H    2.416050   5.186643   6.246913   4.172356   6.193020
    20  H    2.486831   5.215620   6.294876   4.188886   6.216101
    21  H    3.760705   5.910313   7.337381   4.647506   6.812056
    22  O    4.625599   6.881592   8.313520   5.599582   7.767235
    23  O    5.688275   7.459995   9.073018   6.112475   8.243137
    24  H    5.849792   7.929294   9.414225   6.636399   8.756276
                   11         12         13         14         15
    11  C    0.000000
    12  C    2.803035   0.000000
    13  C    1.404354   2.409141   0.000000
    14  C    2.429588   1.391881   1.390871   0.000000
    15  H    3.890635   1.087770   3.386392   2.139112   0.000000
    16  H    2.171722   3.386461   1.088537   2.137586   4.268661
    17  H    3.412898   2.152709   2.151102   1.086799   2.459148
    18  C    1.511879   4.314267   2.509084   3.798571   5.401550
    19  H    2.142648   4.804365   3.237416   4.436814   5.874457
    20  H    2.141556   4.799090   3.204934   4.411143   5.868477
    21  H    2.201715   4.840976   2.635348   4.025066   5.901620
    22  O    3.157383   5.696133   3.374881   4.751487   6.731843
    23  O    3.808777   5.939873   3.575236   4.808691   6.887813
    24  H    4.326141   6.584490   4.293150   5.539677   7.551328
                   16         17         18         19         20
    16  H    0.000000
    17  H    2.455507   0.000000
    18  C    2.713127   4.659836   0.000000
    19  H    3.492441   5.331226   1.097488   0.000000
    20  H    3.440651   5.295214   1.097489   1.787286   0.000000
    21  H    2.370193   4.688505   1.109377   1.778366   1.788861
    22  O    2.831031   5.273298   2.044408   2.533342   2.488048
    23  O    2.753268   5.090212   3.084985   3.421259   3.796650
    24  H    3.587443   5.879967   3.415748   3.459451   4.133305
                   21         22         23         24
    21  H    0.000000
    22  O    0.981766   0.000000
    23  O    2.033110   1.454633   0.000000
    24  H    2.457668   1.840089   0.974129   0.000000
 Stoichiometry    C11H11O2(2)
 Framework group  C1[X(C11H11O2)]
 Deg. of freedom    66
 Full point group                 C1      NOp   1
 Largest Abelian subgroup         C1      NOp   1
 Largest concise Abelian subgroup C1      NOp   1
                         Standard orientation:                         
 ---------------------------------------------------------------------
 Center     Atomic      Atomic             Coordinates (Angstroms)
 Number     Number       Type             X           Y           Z
 ---------------------------------------------------------------------
      1          6           0       -2.691915   -1.814121    0.074582
      2          6           0       -3.556336   -0.729474    0.136041
      3          6           0       -1.313592   -1.603119   -0.013319
      4          1           0       -3.085796   -2.826823    0.093878
      5          6           0       -0.761814   -0.301988   -0.041737
      6          1           0       -0.671069   -2.478632   -0.061528
      7          6           0       -3.042789    0.565869    0.108684
      8          1           0       -4.629071   -0.888457    0.203947
      9          6           0       -1.659399    0.794330    0.020072
     10          1           0       -3.735679    1.403323    0.156279
     11          6           0        0.634260   -0.042342   -0.129782
     12          6           0       -1.163000    2.105283   -0.009078
     13          6           0        1.096465    1.283390   -0.161621
     14          6           0        0.204382    2.348733   -0.100342
     15          1           0       -1.842979    2.953068    0.037109
     16          1           0        2.160975    1.498559   -0.235333
     17          1           0        0.575144    3.370041   -0.124826
     18          6           0        1.644654   -1.164762   -0.200863
     19          1           0        1.530869   -1.813120    0.677296
     20          1           0        1.466123   -1.756263   -1.107912
     21          1           0        2.695797   -0.810435   -0.217216
     22          8           0        3.667320   -0.896607   -0.329384
     23          8           0        4.389714    0.057615    0.497395
     24          1           0        4.733911   -0.590129    1.138397
 ---------------------------------------------------------------------
 Rotational constants (GHZ):           1.6043917           0.4588476           0.3621588
 Standard basis: 6-311+G(2df,2p) (5D, 7F)
 There are   606 symmetry adapted cartesian basis functions of A   symmetry.
 There are   541 symmetry adapted basis functions of A   symmetry.
   541 basis functions,   797 primitive gaussians,   606 cartesian basis functions
    47 alpha electrons       46 beta electrons
       nuclear repulsion energy       727.6423313620 Hartrees.
 NAtoms=   24 NActive=   24 NUniq=   24 SFac= 1.00D+00 NAtFMM=   60 NAOKFM=F Big=F
 Integral buffers will be    131072 words long.
 Raffenetti 2 integral format.
 Two-electron integral symmetry is turned on.
 One-electron integrals computed using PRISM.
 NBasis=   541 RedAO= T EigKep=  1.14D-06  NBF=   541
 NBsUse=   538 1.00D-06 EigRej=  6.42D-07 NBFU=   538
 ExpMin= 4.38D-02 ExpMax= 8.59D+03 ExpMxC= 1.30D+03 IAcc=2 IRadAn=         4 AccDes= 0.00D+00
 Harris functional with IExCor= 1009 and IRadAn=       4 diagonalized for initial guess.
 HarFok:  IExCor= 1009 AccDes= 0.00D+00 IRadAn=         4 IDoV= 1 UseB2=F ITyADJ=14
 ICtDFT=  3500011 ScaDFX=  1.000000  1.000000  1.000000  1.000000
 FoFCou: FMM=F IPFlag=           0 FMFlag=      100000 FMFlg1=           0
         NFxFlg=           0 DoJE=T BraDBF=F KetDBF=T FulRan=T
         wScrn=  0.000000 ICntrl=       500 IOpCl=  0 I1Cent=   200000004 NGrid=           0
         NMat0=    1 NMatS0=      1 NMatT0=    0 NMatD0=    1 NMtDS0=    0 NMtDT0=    0
 Petite list used in FoFCou.
 Initial guess <Sx>= 0.0000 <Sy>= 0.0000 <Sz>= 0.5000 <S**2>= 0.7500 S= 0.5000
 Requested convergence on RMS density matrix=1.00D-08 within 128 cycles.
 Requested convergence on MAX density matrix=1.00D-06.
 Requested convergence on             energy=1.00D-06.
 No special actions if energy rises.
