 Entering Gaussian System, Link 0=g16
 Input=rxn937.com
 Output=rxn937.log
 Initial command:
 /shared/centos7/gaussian/g16/l1.exe "/scratch/dinius.ab/QMscratch/Gau-20033.inp" -scrdir="/scratch/dinius.ab/QMscratch/"
 Entering Link 1 = /shared/centos7/gaussian/g16/l1.exe PID=     20034.
  
 Copyright (c) 1988,1990,1992,1993,1995,1998,2003,2009,2016,
            Gaussian, Inc.  All Rights Reserved.
  
 This is part of the Gaussian(R) 16 program.  It is based on
 the Gaussian(R) 09 system (copyright 2009, Gaussian, Inc.),
 the Gaussian(R) 03 system (copyright 2003, Gaussian, Inc.),
 the Gaussian(R) 98 system (copyright 1998, Gaussian, Inc.),
 the Gaussian(R) 94 system (copyright 1995, Gaussian, Inc.),
 the Gaussian 92(TM) system (copyright 1992, Gaussian, Inc.),
 the Gaussian 90(TM) system (copyright 1990, Gaussian, Inc.),
 the Gaussian 88(TM) system (copyright 1988, Gaussian, Inc.),
 the Gaussian 86(TM) system (copyright 1986, Carnegie Mellon
 University), and the Gaussian 82(TM) system (copyright 1983,
 Carnegie Mellon University). Gaussian is a federally registered
 trademark of Gaussian, Inc.
  
 This software contains proprietary and confidential information,
 including trade secrets, belonging to Gaussian, Inc.
  
 This software is provided under written license and may be
 used, copied, transmitted, or stored only in accord with that
 written license.
  
 The following legend is applicable only to US Government
 contracts under FAR:
  
                    RESTRICTED RIGHTS LEGEND
  
 Use, reproduction and disclosure by the US Government is
 subject to restrictions as set forth in subparagraphs (a)
 and (c) of the Commercial Computer Software - Restricted
 Rights clause in FAR 52.227-19.
  
 Gaussian, Inc.
 340 Quinnipiac St., Bldg. 40, Wallingford CT 06492
  
  
 ---------------------------------------------------------------
 Warning -- This program may not be used in any manner that
 competes with the business of Gaussian, Inc. or will provide
 assistance to any competitor of Gaussian, Inc.  The licensee
 of this program is prohibited from giving any competitor of
 Gaussian, Inc. access to this program.  By using this program,
 the user acknowledges that Gaussian, Inc. is engaged in the
 business of creating and licensing software in the field of
 computational chemistry and represents and warrants to the
 licensee that it is not a competitor of Gaussian, Inc. and that
 it will not use this program in any manner prohibited above.
 ---------------------------------------------------------------
  

 Cite this work as:
 Gaussian 16, Revision A.03,
 M. J. Frisch, G. W. Trucks, H. B. Schlegel, G. E. Scuseria, 
 M. A. Robb, J. R. Cheeseman, G. Scalmani, V. Barone, 
 G. A. Petersson, H. Nakatsuji, X. Li, M. Caricato, A. V. Marenich, 
 J. Bloino, B. G. Janesko, R. Gomperts, B. Mennucci, H. P. Hratchian, 
 J. V. Ortiz, A. F. Izmaylov, J. L. Sonnenberg, D. Williams-Young, 
 F. Ding, F. Lipparini, F. Egidi, J. Goings, B. Peng, A. Petrone, 
 T. Henderson, D. Ranasinghe, V. G. Zakrzewski, J. Gao, N. Rega, 
 G. Zheng, W. Liang, M. Hada, M. Ehara, K. Toyota, R. Fukuda, 
 J. Hasegawa, M. Ishida, T. Nakajima, Y. Honda, O. Kitao, H. Nakai, 
 T. Vreven, K. Throssell, J. A. Montgomery, Jr., J. E. Peralta, 
 F. Ogliaro, M. J. Bearpark, J. J. Heyd, E. N. Brothers, K. N. Kudin, 
 V. N. Staroverov, T. A. Keith, R. Kobayashi, J. Normand, 
 K. Raghavachari, A. P. Rendell, J. C. Burant, S. S. Iyengar, 
 J. Tomasi, M. Cossi, J. M. Millam, M. Klene, C. Adamo, R. Cammi, 
 J. W. Ochterski, R. L. Martin, K. Morokuma, O. Farkas, 
 J. B. Foresman, and D. J. Fox, Gaussian, Inc., Wallingford CT, 2016.
 
 ******************************************
 Gaussian 16:  EM64L-G16RevA.03 25-Dec-2016
                29-Oct-2018 
 ******************************************
 ----------------------------------------------------------------------
 #m062x/6-311+g(2df,2p) Opt=(ModRedun,Loose,maxcycle=1000) Int(Grid=SG1
 ) freq
 ----------------------------------------------------------------------
 1/6=1000,7=-1,18=120,19=15,26=2,38=1/1,3;
 2/9=110,12=2,17=6,18=5,40=1/2;
 3/5=4,6=6,7=214,11=2,25=1,30=1,71=1,74=-55,75=1/1,2,3;
 4//1;
 5/5=2,38=5/2;
 6/7=2,8=2,9=2,10=2,28=1/1;
 7//1,2,3,16;
 1/6=1000,7=-1,18=20,19=15,26=2/3(2);
 2/9=110/2;
 99//99;
 2/9=110/2;
 3/5=4,6=6,7=214,11=2,25=1,30=1,71=1,74=-55,75=1/1,2,3;
 4/5=5,16=3,69=1/1;
 5/5=2,38=5/2;
 7//1,2,3,16;
 1/6=1000,7=-1,18=20,19=15,26=2/3(-5);
 2/9=110/2;
 6/7=2,8=2,9=2,10=2,19=2,28=1/1;
 99/9=1/99;
 -----
 Title
 -----
 Symbolic Z-matrix:
 Charge =  0 Multiplicity = 2
 C                    -8.53665  -1.5567   -0.21116 
 C                    -7.78085  -2.72252  -0.23567 
 C                    -6.38995  -2.66003  -0.18544 
 C                    -5.72267  -1.42497  -0.11097 
 C                    -7.89786  -0.32441  -0.13806 
 C                    -6.50426  -0.25438  -0.08994 
 H                    -8.4945    0.58488  -0.11998 
 H                    -9.62196  -1.60801  -0.24998 
 H                    -8.27748  -3.68795  -0.29461 
 H                    -5.85525  -3.60167  -0.20898 
 C                    -5.90067   0.99906  -0.02164 
 C                    -4.31438  -1.3156   -0.05875 
 C                    -4.51805   1.10611   0.02303 
 H                    -6.50713   1.90178  -0.00485 
 C                    -3.72587  -0.03942   0.0045 
 H                    -4.06035   2.09145   0.07412 
 C                    -2.33883   0.10641   0.05277 
 C                    -3.46093  -2.43175  -0.06479 
 C                    -1.50753  -1.01045   0.04778 
 H                    -1.89903   1.10056   0.10075 
 C                    -2.0773   -2.2795   -0.01025 
 H                    -3.84126  -3.44503  -0.10687 
 H                    -1.44374  -3.16351  -0.01071 
 C                     0.00148  -0.8352    0.12054 
 H                     0.28798  -0.30138   1.03366 
 H                     0.35721  -0.26339  -0.73985 
 H                     0.51163  -1.80135   0.11848 
 O                     0.40109   0.34803   1.91847 
 O                    -0.38289   0.34886   3.16315 
 H                    -1.09312   0.96441   2.90315 
 
 The following ModRedundant input section has been read:
 

 GradGradGradGradGradGradGradGradGradGradGradGradGradGradGradGradGradGrad
 Berny optimization.
 Initialization pass.
                           ----------------------------
                           !    Initial Parameters    !
                           ! (Angstroms and Degrees)  !
 --------------------------                            --------------------------
 ! Name  Definition              Value          Derivative Info.                !
 --------------------------------------------------------------------------------
 ! R1    R(1,2)                  1.3896         estimate D2E/DX2                !
 ! R2    R(1,5)                  1.3899         estimate D2E/DX2                !
 ! R3    R(1,8)                  1.0872         estimate D2E/DX2                !
 ! R4    R(2,3)                  1.3932         estimate D2E/DX2                !
 ! R5    R(2,9)                  1.0873         estimate D2E/DX2                !
 ! R6    R(3,4)                  1.4058         estimate D2E/DX2                !
 ! R7    R(3,10)                 1.0831         estimate D2E/DX2                !
 ! R8    R(4,6)                  1.4077         estimate D2E/DX2                !
 ! R9    R(4,12)                 1.4135         estimate D2E/DX2                !
 ! R10   R(5,6)                  1.3962         estimate D2E/DX2                !
 ! R11   R(5,7)                  1.0877         estimate D2E/DX2                !
 ! R12   R(6,11)                 1.3929         estimate D2E/DX2                !
 ! R13   R(11,13)                1.3875         estimate D2E/DX2                !
 ! R14   R(11,14)                1.0876         estimate D2E/DX2                !
 ! R15   R(12,15)                1.4068         estimate D2E/DX2                !
 ! R16   R(12,18)                1.4051         estimate D2E/DX2                !
 ! R17   R(13,15)                1.3929         estimate D2E/DX2                !
 ! R18   R(13,16)                1.0877         estimate D2E/DX2                !
 ! R19   R(15,17)                1.3955         estimate D2E/DX2                !
 ! R20   R(17,19)                1.3923         estimate D2E/DX2                !
 ! R21   R(17,20)                1.0881         estimate D2E/DX2                !
 ! R22   R(18,21)                1.393          estimate D2E/DX2                !
 ! R23   R(18,22)                1.0831         estimate D2E/DX2                !
 ! R24   R(19,21)                1.3923         estimate D2E/DX2                !
 ! R25   R(19,24)                1.5209         estimate D2E/DX2                !
 ! R26   R(21,23)                1.0876         estimate D2E/DX2                !
 ! R27   R(24,25)                1.0958         estimate D2E/DX2                !
 ! R28   R(24,26)                1.0926         estimate D2E/DX2                !
 ! R29   R(24,27)                1.0926         estimate D2E/DX2                !
 ! R30   R(25,28)                1.1034         estimate D2E/DX2                !
 ! R31   R(28,29)                1.471          estimate D2E/DX2                !
 ! R32   R(29,30)                0.9752         estimate D2E/DX2                !
 ! A1    A(2,1,5)              119.6545         estimate D2E/DX2                !
 ! A2    A(2,1,8)              120.1803         estimate D2E/DX2                !
 ! A3    A(5,1,8)              120.1652         estimate D2E/DX2                !
 ! A4    A(1,2,3)              120.3136         estimate D2E/DX2                !
 ! A5    A(1,2,9)              119.8326         estimate D2E/DX2                !
 ! A6    A(3,2,9)              119.8539         estimate D2E/DX2                !
 ! A7    A(2,3,4)              121.011          estimate D2E/DX2                !
 ! A8    A(2,3,10)             116.9409         estimate D2E/DX2                !
 ! A9    A(4,3,10)             122.0479         estimate D2E/DX2                !
 ! A10   A(3,4,6)              117.8932         estimate D2E/DX2                !
 ! A11   A(3,4,12)             122.8787         estimate D2E/DX2                !
 ! A12   A(6,4,12)             119.2281         estimate D2E/DX2                !
 ! A13   A(1,5,6)              120.332          estimate D2E/DX2                !
 ! A14   A(1,5,7)              119.336          estimate D2E/DX2                !
 ! A15   A(6,5,7)              120.3319         estimate D2E/DX2                !
 ! A16   A(4,6,5)              120.7953         estimate D2E/DX2                !
 ! A17   A(4,6,11)             120.5607         estimate D2E/DX2                !
 ! A18   A(5,6,11)             118.6439         estimate D2E/DX2                !
 ! A19   A(6,11,13)            120.1877         estimate D2E/DX2                !
 ! A20   A(6,11,14)            120.3991         estimate D2E/DX2                !
 ! A21   A(13,11,14)           119.4131         estimate D2E/DX2                !
 ! A22   A(4,12,15)            119.2524         estimate D2E/DX2                !
 ! A23   A(4,12,18)            122.9256         estimate D2E/DX2                !
 ! A24   A(15,12,18)           117.822          estimate D2E/DX2                !
 ! A25   A(11,13,15)           120.1894         estimate D2E/DX2                !
 ! A26   A(11,13,16)           119.3898         estimate D2E/DX2                !
 ! A27   A(15,13,16)           120.4207         estimate D2E/DX2                !
 ! A28   A(12,15,13)           120.5804         estimate D2E/DX2                !
 ! A29   A(12,15,17)           120.8075         estimate D2E/DX2                !
 ! A30   A(13,15,17)           118.612          estimate D2E/DX2                !
 ! A31   A(15,17,19)           120.6303         estimate D2E/DX2                !
 ! A32   A(15,17,20)           119.915          estimate D2E/DX2                !
 ! A33   A(19,17,20)           119.4537         estimate D2E/DX2                !
 ! A34   A(12,18,21)           121.0854         estimate D2E/DX2                !
 ! A35   A(12,18,22)           122.0076         estimate D2E/DX2                !
 ! A36   A(21,18,22)           116.9063         estimate D2E/DX2                !
 ! A37   A(17,19,21)           119.142          estimate D2E/DX2                !
 ! A38   A(17,19,24)           119.9871         estimate D2E/DX2                !
 ! A39   A(21,19,24)           120.8675         estimate D2E/DX2                !
 ! A40   A(18,21,19)           120.5116         estimate D2E/DX2                !
 ! A41   A(18,21,23)           119.3236         estimate D2E/DX2                !
 ! A42   A(19,21,23)           120.1646         estimate D2E/DX2                !
 ! A43   A(19,24,25)           110.818          estimate D2E/DX2                !
 ! A44   A(19,24,26)           110.2226         estimate D2E/DX2                !
 ! A45   A(19,24,27)           111.1797         estimate D2E/DX2                !
 ! A46   A(25,24,26)           108.4278         estimate D2E/DX2                !
 ! A47   A(25,24,27)           108.0754         estimate D2E/DX2                !
 ! A48   A(26,24,27)           108.0161         estimate D2E/DX2                !
 ! A49   A(25,28,29)           128.6261         estimate D2E/DX2                !
 ! A50   A(28,29,30)            99.3764         estimate D2E/DX2                !
 ! A51   L(24,25,28,5,-1)      170.2936         estimate D2E/DX2                !
 ! A52   L(24,25,28,5,-2)      185.3591         estimate D2E/DX2                !
 ! D1    D(5,1,2,3)              0.0918         estimate D2E/DX2                !
 ! D2    D(5,1,2,9)           -179.8911         estimate D2E/DX2                !
 ! D3    D(8,1,2,3)           -179.9705         estimate D2E/DX2                !
 ! D4    D(8,1,2,9)              0.0466         estimate D2E/DX2                !
 ! D5    D(2,1,5,6)              0.0279         estimate D2E/DX2                !
 ! D6    D(2,1,5,7)            179.9516         estimate D2E/DX2                !
 ! D7    D(8,1,5,6)           -179.9098         estimate D2E/DX2                !
 ! D8    D(8,1,5,7)              0.0139         estimate D2E/DX2                !
 ! D9    D(1,2,3,4)             -0.0789         estimate D2E/DX2                !
 ! D10   D(1,2,3,10)          -179.9316         estimate D2E/DX2                !
 ! D11   D(9,2,3,4)            179.904          estimate D2E/DX2                !
 ! D12   D(9,2,3,10)             0.0512         estimate D2E/DX2                !
 ! D13   D(2,3,4,6)             -0.0525         estimate D2E/DX2                !
 ! D14   D(2,3,4,12)          -179.9728         estimate D2E/DX2                !
 ! D15   D(10,3,4,6)           179.7926         estimate D2E/DX2                !
 ! D16   D(10,3,4,12)           -0.1276         estimate D2E/DX2                !
 ! D17   D(3,4,6,5)              0.1724         estimate D2E/DX2                !
 ! D18   D(3,4,6,11)          -179.7759         estimate D2E/DX2                !
 ! D19   D(12,4,6,5)          -179.9044         estimate D2E/DX2                !
 ! D20   D(12,4,6,11)            0.1473         estimate D2E/DX2                !
 ! D21   D(3,4,12,15)          179.5206         estimate D2E/DX2                !
 ! D22   D(3,4,12,18)           -0.5825         estimate D2E/DX2                !
 ! D23   D(6,4,12,15)           -0.3986         estimate D2E/DX2                !
 ! D24   D(6,4,12,18)          179.4983         estimate D2E/DX2                !
 ! D25   D(1,5,6,4)             -0.1626         estimate D2E/DX2                !
 ! D26   D(1,5,6,11)           179.7866         estimate D2E/DX2                !
 ! D27   D(7,5,6,4)            179.9145         estimate D2E/DX2                !
 ! D28   D(7,5,6,11)            -0.1363         estimate D2E/DX2                !
 ! D29   D(4,6,11,13)            0.1654         estimate D2E/DX2                !
 ! D30   D(4,6,11,14)         -179.9579         estimate D2E/DX2                !
 ! D31   D(5,6,11,13)         -179.7839         estimate D2E/DX2                !
 ! D32   D(5,6,11,14)            0.0928         estimate D2E/DX2                !
 ! D33   D(6,11,13,15)          -0.2225         estimate D2E/DX2                !
 ! D34   D(6,11,13,16)         179.8725         estimate D2E/DX2                !
 ! D35   D(14,11,13,15)        179.8996         estimate D2E/DX2                !
 ! D36   D(14,11,13,16)         -0.0054         estimate D2E/DX2                !
 ! D37   D(4,12,15,13)           0.3467         estimate D2E/DX2                !
 ! D38   D(4,12,15,17)        -179.7878         estimate D2E/DX2                !
 ! D39   D(18,12,15,13)       -179.5555         estimate D2E/DX2                !
 ! D40   D(18,12,15,17)          0.3101         estimate D2E/DX2                !
 ! D41   D(4,12,18,21)        -179.9133         estimate D2E/DX2                !
 ! D42   D(4,12,18,22)          -0.2104         estimate D2E/DX2                !
 ! D43   D(15,12,18,21)         -0.015          estimate D2E/DX2                !
 ! D44   D(15,12,18,22)        179.6879         estimate D2E/DX2                !
 ! D45   D(11,13,15,12)         -0.0357         estimate D2E/DX2                !
 ! D46   D(11,13,15,17)       -179.9041         estimate D2E/DX2                !
 ! D47   D(16,13,15,12)        179.8683         estimate D2E/DX2                !
 ! D48   D(16,13,15,17)         -0.0002         estimate D2E/DX2                !
 ! D49   D(12,15,17,19)         -0.4059         estimate D2E/DX2                !
 ! D50   D(12,15,17,20)        179.9568         estimate D2E/DX2                !
 ! D51   D(13,15,17,19)        179.4622         estimate D2E/DX2                !
 ! D52   D(13,15,17,20)         -0.1751         estimate D2E/DX2                !
 ! D53   D(15,17,19,21)          0.1951         estimate D2E/DX2                !
 ! D54   D(15,17,19,24)       -179.1405         estimate D2E/DX2                !
 ! D55   D(20,17,19,21)        179.8341         estimate D2E/DX2                !
 ! D56   D(20,17,19,24)          0.4985         estimate D2E/DX2                !
 ! D57   D(12,18,21,19)         -0.1903         estimate D2E/DX2                !
 ! D58   D(12,18,21,23)        179.6474         estimate D2E/DX2                !
 ! D59   D(22,18,21,19)       -179.9078         estimate D2E/DX2                !
 ! D60   D(22,18,21,23)         -0.0701         estimate D2E/DX2                !
 ! D61   D(17,19,21,18)          0.1002         estimate D2E/DX2                !
 ! D62   D(17,19,21,23)       -179.7362         estimate D2E/DX2                !
 ! D63   D(24,19,21,18)        179.4298         estimate D2E/DX2                !
 ! D64   D(24,19,21,23)         -0.4066         estimate D2E/DX2                !
 ! D65   D(17,19,24,25)         59.139          estimate D2E/DX2                !
 ! D66   D(17,19,24,26)        -60.8921         estimate D2E/DX2                !
 ! D67   D(17,19,24,27)        179.3582         estimate D2E/DX2                !
 ! D68   D(21,19,24,25)       -120.185          estimate D2E/DX2                !
 ! D69   D(21,19,24,26)        119.7839         estimate D2E/DX2                !
 ! D70   D(21,19,24,27)          0.0342         estimate D2E/DX2                !
 ! D71   D(19,24,28,29)         31.2508         estimate D2E/DX2                !
 ! D72   D(26,24,28,29)        149.4488         estimate D2E/DX2                !
 ! D73   D(27,24,28,29)        -91.1813         estimate D2E/DX2                !
 ! D74   D(25,28,29,30)        -88.6137         estimate D2E/DX2                !
 --------------------------------------------------------------------------------
 Trust Radius=3.00D-01 FncErr=1.00D-05 GrdErr=1.00D-04 EigMax=2.50D+02 EigMin=1.00D-04
 Number of steps in this run=    180 maximum allowed number of steps=    180.
 GradGradGradGradGradGradGradGradGradGradGradGradGradGradGradGradGradGrad

                          Input orientation:                          
 ---------------------------------------------------------------------
 Center     Atomic      Atomic             Coordinates (Angstroms)
 Number     Number       Type             X           Y           Z
 ---------------------------------------------------------------------
      1          6           0       -8.536650   -1.556700   -0.211160
      2          6           0       -7.780850   -2.722520   -0.235670
      3          6           0       -6.389950   -2.660030   -0.185440
      4          6           0       -5.722670   -1.424970   -0.110970
      5          6           0       -7.897860   -0.324410   -0.138060
      6          6           0       -6.504260   -0.254380   -0.089940
      7          1           0       -8.494500    0.584880   -0.119980
      8          1           0       -9.621960   -1.608010   -0.249980
      9          1           0       -8.277480   -3.687950   -0.294610
     10          1           0       -5.855250   -3.601670   -0.208980
     11          6           0       -5.900670    0.999060   -0.021640
     12          6           0       -4.314380   -1.315600   -0.058750
     13          6           0       -4.518050    1.106110    0.023030
     14          1           0       -6.507130    1.901780   -0.004850
     15          6           0       -3.725870   -0.039420    0.004500
     16          1           0       -4.060350    2.091450    0.074120
     17          6           0       -2.338830    0.106410    0.052770
     18          6           0       -3.460930   -2.431750   -0.064790
     19          6           0       -1.507530   -1.010450    0.047780
     20          1           0       -1.899030    1.100560    0.100750
     21          6           0       -2.077300   -2.279500   -0.010250
     22          1           0       -3.841260   -3.445030   -0.106870
     23          1           0       -1.443740   -3.163510   -0.010710
     24          6           0        0.001480   -0.835200    0.120540
     25          1           0        0.287980   -0.301380    1.033660
     26          1           0        0.357210   -0.263390   -0.739850
     27          1           0        0.511630   -1.801350    0.118480
     28          8           0        0.401090    0.348030    1.918470
     29          8           0       -0.382890    0.348860    3.163150
     30          1           0       -1.093120    0.964410    2.903150
 ---------------------------------------------------------------------
                    Distance matrix (angstroms):
                    1          2          3          4          5
     1  C    0.000000
     2  C    1.389594   0.000000
     3  C    2.413777   1.393209   0.000000
     4  C    2.818843   2.436245   1.405767   0.000000
     5  C    1.389941   2.402946   2.780496   2.437913   0.000000
     6  C    2.416887   2.782559   2.410257   1.407695   1.396188
     7  H    2.143935   3.385495   3.868185   3.423831   1.087711
     8  H    1.087215   2.152214   3.399529   3.906058   2.152365
     9  H    2.148572   1.087277   2.152047   3.417873   3.388513
    10  H    3.372212   2.116968   1.083118   2.182935   3.862346
    11  C    3.676441   4.175050   3.695290   2.432198   2.398728
    12  C    4.231893   3.745282   2.476193   1.413495   3.718881
    13  C    4.826443   5.036983   4.210853   2.806320   3.673616
    14  H    4.015296   4.802061   4.566887   3.419635   2.628269
    15  C    5.048985   4.868220   3.741791   2.433165   4.184142
    16  H    5.781665   6.091995   5.298204   3.893941   4.539591
    17  C    6.422505   6.140165   4.911365   3.717837   5.578964
    18  C    5.152676   4.333065   2.940379   2.476127   4.912494
    19  C    7.055067   6.508922   5.158830   4.238447   6.429736
    20  H    7.156558   7.023171   5.864495   4.587303   6.170375
    21  C    6.502769   5.725169   4.332949   3.745542   6.141468
    22  H    5.061952   4.007366   2.667999   2.760500   5.118129
    23  H    7.275396   6.356417   4.974838   4.619720   7.052118
    24  C    8.574978   8.015830   6.653871   5.759107   7.920060
    25  H    8.999972   8.519339   7.186389   6.220976   8.269307
    26  H    9.002939   8.516428   7.181603   6.221712   8.277201
    27  H    9.057587   8.351000   6.961430   6.249864   8.542054
    28  O    9.383311   9.000708   7.719656   6.690485   8.576366
    29  O    9.027786   8.701446   7.506747   6.509960   8.235657
    30  H    8.453464   8.256596   7.122665   6.018869   7.564027
                    6          7          8          9         10
     6  C    0.000000
     7  H    2.160166   0.000000
     8  H    3.402643   2.469177   0.000000
     9  H    3.869832   4.281900   2.477048   0.000000
    10  H    3.411706   4.949824   4.261979   2.425278   0.000000
    11  C    1.392874   2.628530   4.549390   5.262300   4.604767
    12  C    2.433667   4.592274   5.319067   4.624915   2.760972
    13  C    2.410130   4.013015   5.787130   6.100592   4.899503
    14  H    2.157840   2.386864   4.699030   5.870535   5.545681
    15  C    2.788293   4.810933   6.106481   5.841095   4.155654
    16  H    3.391538   4.687122   6.687492   7.163910   5.976071
    17  C    4.183461   6.176654   7.488316   7.055877   5.116989
    18  C    3.742116   5.868554   6.218612   4.982972   2.668758
    19  C    5.055484   7.168750   8.141849   7.288241   5.067841
    20  H    4.804203   6.619280   8.191643   7.985660   6.152932
    21  C    4.868823   7.028312   7.578276   6.364497   4.007560
    22  H    4.155972   6.155728   6.067258   4.446831   2.022651
    23  H    5.837652   7.985962   8.328272   6.859711   4.437648
    24  C    6.535006   8.617201   9.661528   8.766511   6.485617
    25  H    6.884708   8.902151  10.077794   9.305926   7.083456
    26  H    6.892186   8.913842  10.081260   9.299662   7.072524
    27  H    7.187438   9.319943  10.142129   8.998798   6.624616
    28  O    7.216680   9.129233  10.439818   9.823667   7.698569
    29  O    6.958280   8.754020  10.041873   9.517168   7.544844
    30  H    6.302735   8.003986   9.449904   9.137021   7.294678
                   11         12         13         14         15
    11  C    0.000000
    12  C    2.806304   0.000000
    13  C    1.387477   2.431635   0.000000
    14  H    1.087648   3.893917   2.142500   0.000000
    15  C    2.410162   1.406762   1.392886   3.391718   0.000000
    16  H    2.142257   3.419090   1.087655   2.455391   2.158085
    17  C    3.672746   2.436667   2.397767   4.538876   1.395520
    18  C    4.210065   1.405064   3.693463   5.297396   2.407953
    19  C    4.831421   2.825398   3.680172   5.786178   2.421942
    20  H    4.004798   3.420115   2.620179   4.678428   2.155496
    21  C    5.036590   2.436387   4.173814   6.091513   2.781359
    22  H    4.898813   2.181887   4.603020   5.975420   3.409384
    23  H    6.098470   3.414331   5.261385   7.162061   3.868887
    24  C    6.182241   4.346214   4.919791   7.061784   3.813118
    25  H    6.411255   4.837739   5.108848   7.218444   4.151962
    26  H    6.424225   4.836817   5.121101   7.235147   4.156412
    27  H    6.998537   4.853631   5.810346   7.936711   4.590620
    28  O    6.625711   5.377055   5.325910   7.337357   4.565654
    29  O    6.404026   5.348615   5.247221   7.067821   4.615555
    30  H    5.627445   4.934350   4.477200   6.216641   4.042427
                   16         17         18         19         20
    16  H    0.000000
    17  C    2.627636   0.000000
    18  C    4.564859   2.777622   0.000000
    19  C    4.017383   1.392286   2.418375   0.000000
    20  H    2.377788   1.088145   3.865766   2.147659   0.000000
    21  C    4.800501   2.401028   1.393049   1.392298   3.386577
    22  H    5.543768   3.859470   1.083124   3.376002   4.947500
    23  H    5.870984   3.390810   2.146498   2.154799   4.289756
    24  C    5.006585   2.523544   3.817277   1.520894   2.712839
    25  H    5.055129   2.833473   4.449651   2.167624   2.760212
    26  H    5.071751   2.834366   4.442486   2.157711   2.767235
    27  H    6.004903   3.430596   4.026441   2.169684   3.772622
    28  O    5.132795   3.323609   5.155162   2.997963   3.026708
    29  O    5.109055   3.682248   5.256017   3.580233   3.498861
    30  H    4.251833   3.226860   5.094025   3.496419   2.919156
                   21         22         23         24         25
    21  C    0.000000
    22  H    2.116448   0.000000
    23  H    1.087599   2.415906   0.000000
    24  C    2.534647   4.650761   2.743522   0.000000
    25  H    3.255343   5.313564   3.504476   1.095826   0.000000
    26  H    3.244049   5.305718   3.490811   1.092603   1.775267
    27  H    2.635860   4.658339   2.386554   1.092567   1.771294
    28  O    4.094666   6.040434   4.410901   2.189126   1.103366
    29  O    4.455308   6.086621   4.851343   3.287433   2.325426
    30  H    4.469839   6.004636   5.064903   3.489937   2.646631
                   26         27         28         29         30
    26  H    0.000000
    27  H    1.768021   0.000000
    28  O    2.728081   2.805712   0.000000
    29  O    4.019454   3.833221   1.471004   0.000000
    30  H    4.108820   4.240170   1.892665   0.975156   0.000000
 Stoichiometry    C15H13O2(2)
 Framework group  C1[X(C15H13O2)]
 Deg. of freedom    84
 Full point group                 C1      NOp   1
 Largest Abelian subgroup         C1      NOp   1
 Largest concise Abelian subgroup C1      NOp   1
                         Standard orientation:                         
 ---------------------------------------------------------------------
 Center     Atomic      Atomic             Coordinates (Angstroms)
 Number     Number       Type             X           Y           Z
 ---------------------------------------------------------------------
      1          6           0        4.628653   -0.042920    0.441273
      2          6           0        4.080182    1.226029    0.582407
      3          6           0        2.716081    1.428522    0.384274
      4          6           0        1.868384    0.361984    0.037737
      5          6           0        3.809194   -1.112106    0.098839
      6          6           0        2.441777   -0.915843   -0.103629
      7          1           0        4.244101   -2.103013   -0.011044
      8          1           0        5.693361   -0.198564    0.596866
      9          1           0        4.718831    2.064787    0.848457
     10          1           0        2.347074    2.439389    0.507255
     11          6           0        1.654123   -2.011142   -0.450067
     12          6           0        0.479952    0.522614   -0.173032
     13          6           0        0.292416   -1.851708   -0.663210
     14          1           0        2.099785   -2.997414   -0.557921
     15          6           0       -0.295532   -0.596313   -0.527442
     16          1           0       -0.310003   -2.715468   -0.935248
     17          6           0       -1.668140   -0.473885   -0.747523
     18          6           0       -0.174257    1.759245   -0.042803
     19          6           0       -2.301052    0.758850   -0.612444
     20          1           0       -2.253951   -1.348919   -1.021751
     21          6           0       -1.545843    1.873513   -0.257930
     22          1           0        0.355760    2.662986    0.231954
     23          1           0       -2.023920    2.843694   -0.143635
     24          6           0       -3.801077    0.871813   -0.836682
     25          1           0       -4.348296    0.220981   -0.145449
     26          1           0       -4.053201    0.579685   -1.858873
     27          1           0       -4.147093    1.896689   -0.683040
     28          8           0       -4.739612   -0.568384    0.518773
     29          8           0       -4.240181   -0.990810    1.836338
     30          1           0       -3.593269   -1.663199    1.552920
 ---------------------------------------------------------------------
 Rotational constants (GHZ):           1.1262598           0.2424942           0.2182094
 Standard basis: 6-311+G(2df,2p) (5D, 7F)
 There are   780 symmetry adapted cartesian basis functions of A   symmetry.
 There are   695 symmetry adapted basis functions of A   symmetry.
   695 basis functions,  1027 primitive gaussians,   780 cartesian basis functions
    60 alpha electrons       59 beta electrons
       nuclear repulsion energy      1090.6509489544 Hartrees.
 NAtoms=   30 NActive=   30 NUniq=   30 SFac= 1.00D+00 NAtFMM=   60 NAOKFM=F Big=F
 Integral buffers will be    131072 words long.
 Raffenetti 2 integral format.
 Two-electron integral symmetry is turned on.
 One-electron integrals computed using PRISM.
 NBasis=   695 RedAO= T EigKep=  1.54D-06  NBF=   695
 NBsUse=   687 1.00D-06 EigRej=  9.03D-07 NBFU=   687
 ExpMin= 4.38D-02 ExpMax= 8.59D+03 ExpMxC= 1.30D+03 IAcc=2 IRadAn=         4 AccDes= 0.00D+00
 Harris functional with IExCor= 1009 and IRadAn=       4 diagonalized for initial guess.
 HarFok:  IExCor= 1009 AccDes= 0.00D+00 IRadAn=         4 IDoV= 1 UseB2=F ITyADJ=14
 ICtDFT=  3500011 ScaDFX=  1.000000  1.000000  1.000000  1.000000
 FoFCou: FMM=F IPFlag=           0 FMFlag=      100000 FMFlg1=           0
         NFxFlg=           0 DoJE=T BraDBF=F KetDBF=T FulRan=T
         wScrn=  0.000000 ICntrl=       500 IOpCl=  0 I1Cent=   200000004 NGrid=           0
         NMat0=    1 NMatS0=      1 NMatT0=    0 NMatD0=    1 NMtDS0=    0 NMtDT0=    0
 Petite list used in FoFCou.
 Initial guess <Sx>= 0.0000 <Sy>= 0.0000 <Sz>= 0.5000 <S**2>= 0.7500 S= 0.5000
 Requested convergence on RMS density matrix=1.00D-08 within 128 cycles.
 Requested convergence on MAX density matrix=1.00D-06.
 Requested convergence on             energy=1.00D-06.
 No special actions if energy rises.
 Restarting incremental Fock formation.
 SCF Done:  E(UM062X) =  -729.604058937     A.U. after   21 cycles
            NFock= 21  Conv=0.49D-08     -V/T= 2.0035
 <Sx>= 0.0000 <Sy>= 0.0000 <Sz>= 0.5000 <S**2>= 0.7609 S= 0.5055
 <L.S>= 0.000000000000E+00
 Annihilation of the first spin contaminant:
 S**2 before annihilation     0.7609,   after     0.7501

 **********************************************************************

            Population analysis using the SCF density.

 **********************************************************************

 Orbital symmetries:
 Alpha Orbitals:
       Occupied  (A) (A) (A) (A) (A) (A) (A) (A) (A) (A) (A) (A)
                 (A) (A) (A) (A) (A) (A) (A) (A) (A) (A) (A) (A)
                 (A) (A) (A) (A) (A) (A) (A) (A) (A) (A) (A) (A)
                 (A) (A) (A) (A) (A) (A) (A) (A) (A) (A) (A) (A)
                 (A) (A) (A) (A) (A) (A) (A) (A) (A) (A) (A) (A)
       Virtual   (A) (A) (A) (A) (A) (A) (A) (A) (A) (A) (A) (A)
                 (A) (A) (A) (A) (A) (A) (A) (A) (A) (A) (A) (A)
                 (A) (A) (A) (A) (A) (A) (A) (A) (A) (A) (A) (A)
                 (A) (A) (A) (A) (A) (A) (A) (A) (A) (A) (A) (A)
                 (A) (A) (A) (A) (A) (A) (A) (A) (A) (A) (A) (A)
                 (A) (A) (A) (A) (A) (A) (A) (A) (A) (A) (A) (A)
                 (A) (A) (A) (A) (A) (A) (A) (A) (A) (A) (A) (A)
                 (A) (A) (A) (A) (A) (A) (A) (A) (A) (A) (A) (A)
                 (A) (A) (A) (A) (A) (A) (A) (A) (A) (A) (A) (A)
                 (A) (A) (A) (A) (A) (A) (A) (A) (A) (A) (A) (A)
                 (A) (A) (A) (A) (A) (A) (A) (A) (A) (A) (A) (A)
                 (A) (A) (A) (A) (A) (A) (A) (A) (A) (A) (A) (A)
                 (A) (A) (A) (A) (A) (A) (A) (A) (A) (A) (A) (A)
                 (A) (A) (A) (A) (A) (A) (A) (A) (A) (A) (A) (A)
                 (A) (A) (A) (A) (A) (A) (A) (A) (A) (A) (A) (A)
                 (A) (A) (A) (A) (A) (A) (A) (A) (A) (A) (A) (A)
                 (A) (A) (A) (A) (A) (A) (A) (A) (A) (A) (A) (A)
                 (A) (A) (A) (A) (A) (A) (A) (A) (A) (A) (A) (A)
                 (A) (A) (A) (A) (A) (A) (A) (A) (A) (A) (A) (A)
                 (A) (A) (A) (A) (A) (A) (A) (A) (A) (A) (A) (A)
                 (A) (A) (A) (A) (A) (A) (A) (A) (A) (A) (A) (A)
                 (A) (A) (A) (A) (A) (A) (A) (A) (A) (A) (A) (A)
                 (A) (A) (A) (A) (A) (A) (A) (A) (A) (A) (A) (A)
                 (A) (A) (A) (A) (A) (A) (A) (A) (A) (A) (A) (A)
                 (A) (A) (A) (A) (A) (A) (A) (A) (A) (A) (A) (A)
                 (A) (A) (A) (A) (A) (A) (A) (A) (A) (A) (A) (A)
                 (A) (A) (A) (A) (A) (A) (A) (A) (A) (A) (A) (A)
                 (A) (A) (A) (A) (A) (A) (A) (A) (A) (A) (A) (A)
                 (A) (A) (A) (A) (A) (A) (A) (A) (A) (A) (A) (A)
                 (A) (A) (A) (A) (A) (A) (A) (A) (A) (A) (A) (A)
                 (A) (A) (A) (A) (A) (A) (A) (A) (A) (A) (A) (A)
                 (A) (A) (A) (A) (A) (A) (A) (A) (A) (A) (A) (A)
                 (A) (A) (A) (A) (A) (A) (A) (A) (A) (A) (A) (A)
                 (A) (A) (A) (A) (A) (A) (A) (A) (A) (A) (A) (A)
                 (A) (A) (A) (A) (A) (A) (A) (A) (A) (A) (A) (A)
                 (A) (A) (A) (A) (A) (A) (A) (A) (A) (A) (A) (A)
                 (A) (A) (A) (A) (A) (A) (A) (A) (A) (A) (A) (A)
                 (A) (A) (A) (A) (A) (A) (A) (A) (A) (A) (A) (A)
                 (A) (A) (A) (A) (A) (A) (A) (A) (A) (A) (A) (A)
                 (A) (A) (A) (A) (A) (A) (A) (A) (A) (A) (A) (A)
                 (A) (A) (A) (A) (A) (A) (A) (A) (A) (A) (A) (A)
                 (A) (A) (A) (A) (A) (A) (A) (A) (A) (A) (A) (A)
                 (A) (A) (A) (A) (A) (A) (A) (A) (A) (A) (A) (A)
                 (A) (A) (A) (A) (A) (A) (A) (A) (A) (A) (A) (A)
                 (A) (A) (A) (A) (A) (A) (A) (A) (A) (A) (A) (A)
                 (A) (A) (A) (A) (A) (A) (A) (A) (A) (A) (A) (A)
                 (A) (A) (A) (A) (A) (A) (A) (A) (A) (A) (A) (A)
                 (A) (A) (A) (A) (A) (A) (A) (A) (A) (A) (A) (A)
                 (A) (A) (A) (A) (A) (A) (A) (A) (A) (A) (A) (A)
                 (A) (A) (A) (A) (A) (A) (A) (A) (A) (A) (A) (A)
                 (A) (A) (A) (A) (A) (A) (A) (A) (A) (A) (A) (A)
                 (A) (A) (A) (A) (A) (A) (A) (A) (A) (A) (A) (A)
                 (A) (A) (A)
 Beta  Orbitals:
       Occupied  (A) (A) (A) (A) (A) (A) (A) (A) (A) (A) (A) (A)
                 (A) (A) (A) (A) (A) (A) (A) (A) (A) (A) (A) (A)
                 (A) (A) (A) (A) (A) (A) (A) (A) (A) (A) (A) (A)
                 (A) (A) (A) (A) (A) (A) (A) (A) (A) (A) (A) (A)
                 (A) (A) (A) (A) (A) (A) (A) (A) (A) (A) (A)
       Virtual   (A) (A) (A) (A) (A) (A) (A) (A) (A) (A) (A) (A)
                 (A) (A) (A) (A) (A) (A) (A) (A) (A) (A) (A) (A)
                 (A) (A) (A) (A) (A) (A) (A) (A) (A) (A) (A) (A)
                 (A) (A) (A) (A) (A) (A) (A) (A) (A) (A) (A) (A)
                 (A) (A) (A) (A) (A) (A) (A) (A) (A) (A) (A) (A)
                 (A) (A) (A) (A) (A) (A) (A) (A) (A) (A) (A) (A)
                 (A) (A) (A) (A) (A) (A) (A) (A) (A) (A) (A) (A)
                 (A) (A) (A) (A) (A) (A) (A) (A) (A) (A) (A) (A)
                 (A) (A) (A) (A) (A) (A) (A) (A) (A) (A) (A) (A)
                 (A) (A) (A) (A) (A) (A) (A) (A) (A) (A) (A) (A)
                 (A) (A) (A) (A) (A) (A) (A) (A) (A) (A) (A) (A)
                 (A) (A) (A) (A) (A) (A) (A) (A) (A) (A) (A) (A)
                 (A) (A) (A) (A) (A) (A) (A) (A) (A) (A) (A) (A)
                 (A) (A) (A) (A) (A) (A) (A) (A) (A) (A) (A) (A)
                 (A) (A) (A) (A) (A) (A) (A) (A) (A) (A) (A) (A)
                 (A) (A) (A) (A) (A) (A) (A) (A) (A) (A) (A) (A)
                 (A) (A) (A) (A) (A) (A) (A) (A) (A) (A) (A) (A)
                 (A) (A) (A) (A) (A) (A) (A) (A) (A) (A) (A) (A)
                 (A) (A) (A) (A) (A) (A) (A) (A) (A) (A) (A) (A)
                 (A) (A) (A) (A) (A) (A) (A) (A) (A) (A) (A) (A)
                 (A) (A) (A) (A) (A) (A) (A) (A) (A) (A) (A) (A)
                 (A) (A) (A) (A) (A) (A) (A) (A) (A) (A) (A) (A)
                 (A) (A) (A) (A) (A) (A) (A) (A) (A) (A) (A) (A)
                 (A) (A) (A) (A) (A) (A) (A) (A) (A) (A) (A) (A)
                 (A) (A) (A) (A) (A) (A) (A) (A) (A) (A) (A) (A)
                 (A) (A) (A) (A) (A) (A) (A) (A) (A) (A) (A) (A)
                 (A) (A) (A) (A) (A) (A) (A) (A) (A) (A) (A) (A)
                 (A) (A) (A) (A) (A) (A) (A) (A) (A) (A) (A) (A)
                 (A) (A) (A) (A) (A) (A) (A) (A) (A) (A) (A) (A)
                 (A) (A) (A) (A) (A) (A) (A) (A) (A) (A) (A) (A)
                 (A) (A) (A) (A) (A) (A) (A) (A) (A) (A) (A) (A)
                 (A) (A) (A) (A) (A) (A) (A) (A) (A) (A) (A) (A)
                 (A) (A) (A) (A) (A) (A) (A) (A) (A) (A) (A) (A)
                 (A) (A) (A) (A) (A) (A) (A) (A) (A) (A) (A) (A)
                 (A) (A) (A) (A) (A) (A) (A) (A) (A) (A) (A) (A)
                 (A) (A) (A) (A) (A) (A) (A) (A) (A) (A) (A) (A)
                 (A) (A) (A) (A) (A) (A) (A) (A) (A) (A) (A) (A)
                 (A) (A) (A) (A) (A) (A) (A) (A) (A) (A) (A) (A)
                 (A) (A) (A) (A) (A) (A) (A) (A) (A) (A) (A) (A)
                 (A) (A) (A) (A) (A) (A) (A) (A) (A) (A) (A) (A)
                 (A) (A) (A) (A) (A) (A) (A) (A) (A) (A) (A) (A)
                 (A) (A) (A) (A) (A) (A) (A) (A) (A) (A) (A) (A)
                 (A) (A) (A) (A) (A) (A) (A) (A) (A) (A) (A) (A)
                 (A) (A) (A) (A) (A) (A) (A) (A) (A) (A) (A) (A)
                 (A) (A) (A) (A) (A) (A) (A) (A) (A) (A) (A) (A)
                 (A) (A) (A) (A) (A) (A) (A) (A) (A) (A) (A) (A)
                 (A) (A) (A) (A) (A) (A) (A) (A) (A) (A) (A) (A)
                 (A) (A) (A) (A) (A) (A) (A) (A) (A) (A) (A) (A)
                 (A) (A) (A) (A) (A) (A) (A) (A) (A) (A) (A) (A)
                 (A) (A) (A) (A) (A) (A) (A) (A) (A) (A) (A) (A)
                 (A) (A) (A) (A) (A) (A) (A) (A) (A) (A) (A) (A)
                 (A) (A) (A) (A) (A) (A) (A) (A) (A) (A) (A) (A)
                 (A) (A) (A) (A)
 The electronic state is 2-A.
 Alpha  occ. eigenvalues --  -19.70765 -19.70094 -10.56260 -10.55952 -10.55878
 Alpha  occ. eigenvalues --  -10.55575 -10.55392 -10.55390 -10.55189 -10.55172
 Alpha  occ. eigenvalues --  -10.55166 -10.55123 -10.55041 -10.55036 -10.55003
 Alpha  occ. eigenvalues --  -10.54872 -10.54711  -1.24845  -1.03953  -1.00836
 Alpha  occ. eigenvalues --   -0.96819  -0.92478  -0.89659  -0.86954  -0.84812
 Alpha  occ. eigenvalues --   -0.81752  -0.79329  -0.72561  -0.72347  -0.69821
 Alpha  occ. eigenvalues --   -0.67603  -0.64111  -0.61662  -0.60346  -0.58448
 Alpha  occ. eigenvalues --   -0.57832  -0.55936  -0.54747  -0.52892  -0.51948
 Alpha  occ. eigenvalues --   -0.50880  -0.50622  -0.49528  -0.48953  -0.48058
 Alpha  occ. eigenvalues --   -0.47119  -0.46424  -0.44802  -0.43344  -0.42836
 Alpha  occ. eigenvalues --   -0.42199  -0.40132  -0.39523  -0.39300  -0.38989
 Alpha  occ. eigenvalues --   -0.36294  -0.33491  -0.32534  -0.27394  -0.26779
 Alpha virt. eigenvalues --   -0.03038  -0.02345   0.00477   0.01066   0.01378
 Alpha virt. eigenvalues --    0.01556   0.02479   0.02994   0.03324   0.03866
 Alpha virt. eigenvalues --    0.04697   0.04788   0.05289   0.05800   0.06549
 Alpha virt. eigenvalues --    0.06891   0.07008   0.07360   0.08019   0.08631
 Alpha virt. eigenvalues --    0.09109   0.09821   0.10355   0.10964   0.11428
 Alpha virt. eigenvalues --    0.11995   0.12470   0.12929   0.13250   0.14032
 Alpha virt. eigenvalues --    0.14238   0.14401   0.14555   0.15459   0.16087
 Alpha virt. eigenvalues --    0.16145   0.17022   0.17440   0.18018   0.18305
 Alpha virt. eigenvalues --    0.18544   0.18598   0.19097   0.19209   0.19430
 Alpha virt. eigenvalues --    0.19689   0.20407   0.20640   0.21172   0.21338
 Alpha virt. eigenvalues --    0.21668   0.21961   0.22222   0.22411   0.22683
 Alpha virt. eigenvalues --    0.23296   0.23612   0.24426   0.24552   0.24899
 Alpha virt. eigenvalues --    0.25860   0.26053   0.26513   0.26982   0.27217
 Alpha virt. eigenvalues --    0.27337   0.27881   0.28188   0.28872   0.29628
 Alpha virt. eigenvalues --    0.29859   0.30217   0.30726   0.31294   0.31783
 Alpha virt. eigenvalues --    0.32352   0.32930   0.33220   0.33886   0.34358
 Alpha virt. eigenvalues --    0.34686   0.35959   0.36518   0.37165   0.38175
 Alpha virt. eigenvalues --    0.38402   0.39079   0.40714   0.41685   0.42228
 Alpha virt. eigenvalues --    0.43438   0.44712   0.46219   0.47628   0.48284
 Alpha virt. eigenvalues --    0.49454   0.50027   0.50714   0.51474   0.52107
 Alpha virt. eigenvalues --    0.52187   0.52434   0.53946   0.54778   0.54870
 Alpha virt. eigenvalues --    0.54973   0.55363   0.56298   0.56608   0.56845
 Alpha virt. eigenvalues --    0.57456   0.57939   0.58976   0.59096   0.59129
 Alpha virt. eigenvalues --    0.60271   0.60551   0.60858   0.61173   0.62028
 Alpha virt. eigenvalues --    0.62881   0.63432   0.63887   0.64397   0.64941
 Alpha virt. eigenvalues --    0.65537   0.65868   0.66308   0.66680   0.67342
 Alpha virt. eigenvalues --    0.68118   0.68441   0.68521   0.69114   0.69492
 Alpha virt. eigenvalues --    0.69660   0.69970   0.70782   0.71066   0.71617
 Alpha virt. eigenvalues --    0.72383   0.72568   0.73142   0.73828   0.74570
 Alpha virt. eigenvalues --    0.74858   0.75494   0.76200   0.76764   0.77333
 Alpha virt. eigenvalues --    0.78159   0.78508   0.78903   0.79226   0.79932
 Alpha virt. eigenvalues --    0.80484   0.80656   0.81861   0.82365   0.82634
 Alpha virt. eigenvalues --    0.84263   0.85020   0.85782   0.86648   0.87196
 Alpha virt. eigenvalues --    0.87490   0.88236   0.88571   0.89436   0.90938
 Alpha virt. eigenvalues --    0.91006   0.91844   0.92892   0.93330   0.94029
 Alpha virt. eigenvalues --    0.95368   0.96157   0.97285   0.97773   0.98686
 Alpha virt. eigenvalues --    0.99784   1.00568   1.01176   1.01898   1.02985
 Alpha virt. eigenvalues --    1.04353   1.05167   1.05278   1.06458   1.06994
 Alpha virt. eigenvalues --    1.07220   1.09100   1.09512   1.10399   1.11814
 Alpha virt. eigenvalues --    1.11902   1.12222   1.13393   1.13846   1.14387
 Alpha virt. eigenvalues --    1.14616   1.15719   1.15909   1.16422   1.16906
 Alpha virt. eigenvalues --    1.18073   1.18496   1.19718   1.20883   1.20986
 Alpha virt. eigenvalues --    1.21920   1.22687   1.23953   1.25545   1.26377
 Alpha virt. eigenvalues --    1.26800   1.27212   1.28093   1.28661   1.29352
 Alpha virt. eigenvalues --    1.30071   1.30603   1.31617   1.32142   1.32978
 Alpha virt. eigenvalues --    1.33160   1.34037   1.34739   1.35461   1.36075
 Alpha virt. eigenvalues --    1.36792   1.38111   1.38734   1.39577   1.39857
 Alpha virt. eigenvalues --    1.40138   1.40427   1.41358   1.41993   1.42330
 Alpha virt. eigenvalues --    1.42890   1.43517   1.44796   1.45732   1.46798
 Alpha virt. eigenvalues --    1.48029   1.48364   1.49080   1.50359   1.50769
 Alpha virt. eigenvalues --    1.51007   1.53050   1.53490   1.54632   1.57074
 Alpha virt. eigenvalues --    1.57976   1.59261   1.60613   1.61974   1.62738
 Alpha virt. eigenvalues --    1.64805   1.65523   1.67004   1.68048   1.69193
 Alpha virt. eigenvalues --    1.71026   1.72036   1.72541   1.73824   1.74227
 Alpha virt. eigenvalues --    1.76357   1.77432   1.79652   1.80606   1.81391
 Alpha virt. eigenvalues --    1.81788   1.84034   1.86503   1.87017   1.87717
 Alpha virt. eigenvalues --    1.88213   1.90113   1.91429   1.92704   1.96272
 Alpha virt. eigenvalues --    1.98278   2.00929   2.01643   2.03141   2.05177
 Alpha virt. eigenvalues --    2.07967   2.12639   2.13773   2.14763   2.17013
 Alpha virt. eigenvalues --    2.22726   2.26275   2.29043   2.30044   2.38528
 Alpha virt. eigenvalues --    2.41017   2.44668   2.47790   2.49882   2.51073
 Alpha virt. eigenvalues --    2.54315   2.57505   2.58239   2.59684   2.61350
 Alpha virt. eigenvalues --    2.62703   2.64114   2.64746   2.65216   2.65921
 Alpha virt. eigenvalues --    2.68713   2.70267   2.70991   2.71963   2.73742
 Alpha virt. eigenvalues --    2.73804   2.75018   2.75675   2.76282   2.76430
 Alpha virt. eigenvalues --    2.77308   2.77857   2.78355   2.78883   2.79712
 Alpha virt. eigenvalues --    2.80600   2.80992   2.81894   2.82235   2.83359
 Alpha virt. eigenvalues --    2.83653   2.84343   2.85118   2.85768   2.85984
 Alpha virt. eigenvalues --    2.86104   2.86357   2.87876   2.88398   2.88999
 Alpha virt. eigenvalues --    2.89228   2.89689   2.89790   2.90643   2.91486
 Alpha virt. eigenvalues --    2.92892   2.93045   2.93141   2.94022   2.96064
 Alpha virt. eigenvalues --    2.96612   2.96803   2.97163   2.97922   3.00962
 Alpha virt. eigenvalues --    3.01454   3.02085   3.04258   3.04900   3.06429
 Alpha virt. eigenvalues --    3.07412   3.07751   3.09809   3.10489   3.10775
 Alpha virt. eigenvalues --    3.12451   3.12738   3.12795   3.13523   3.14080
 Alpha virt. eigenvalues --    3.14626   3.15578   3.15819   3.16915   3.17776
 Alpha virt. eigenvalues --    3.19163   3.19574   3.19722   3.20124   3.21229
 Alpha virt. eigenvalues --    3.21873   3.22554   3.23844   3.23997   3.24319
 Alpha virt. eigenvalues --    3.24569   3.25812   3.25967   3.27519   3.28633
 Alpha virt. eigenvalues --    3.29108   3.29224   3.29907   3.31273   3.31515
 Alpha virt. eigenvalues --    3.32458   3.33166   3.34472   3.34640   3.35139
 Alpha virt. eigenvalues --    3.36220   3.37503   3.39092   3.39486   3.40167
 Alpha virt. eigenvalues --    3.41813   3.43301   3.44556   3.45607   3.45942
 Alpha virt. eigenvalues --    3.46535   3.47119   3.47885   3.48494   3.50520
 Alpha virt. eigenvalues --    3.50682   3.51424   3.52677   3.52845   3.53566
 Alpha virt. eigenvalues --    3.53864   3.54621   3.54930   3.56877   3.57870
 Alpha virt. eigenvalues --    3.58239   3.59132   3.61013   3.61428   3.62754
 Alpha virt. eigenvalues --    3.63422   3.64482   3.67294   3.67793   3.68837
 Alpha virt. eigenvalues --    3.70001   3.70676   3.70917   3.71358   3.71515
 Alpha virt. eigenvalues --    3.74078   3.76208   3.76645   3.76844   3.77556
 Alpha virt. eigenvalues --    3.78194   3.78564   3.78940   3.79631   3.80205
 Alpha virt. eigenvalues --    3.81909   3.82526   3.83929   3.86262   3.86727
 Alpha virt. eigenvalues --    3.87151   3.88708   3.89851   3.91389   3.92122
 Alpha virt. eigenvalues --    3.92625   3.94562   3.96091   3.96792   3.97334
 Alpha virt. eigenvalues --    3.98940   3.99548   4.02113   4.03325   4.05517
 Alpha virt. eigenvalues --    4.06250   4.06584   4.07493   4.09542   4.10479
 Alpha virt. eigenvalues --    4.11329   4.12705   4.14034   4.14394   4.15106
 Alpha virt. eigenvalues --    4.16007   4.17011   4.17916   4.19878   4.21668
 Alpha virt. eigenvalues --    4.23754   4.23829   4.25668   4.26974   4.27849
 Alpha virt. eigenvalues --    4.28225   4.28728   4.29038   4.30287   4.31861
 Alpha virt. eigenvalues --    4.32376   4.33560   4.33946   4.35244   4.36599
 Alpha virt. eigenvalues --    4.36736   4.38625   4.40252   4.40789   4.41494
 Alpha virt. eigenvalues --    4.41979   4.42585   4.44640   4.45118   4.45476
 Alpha virt. eigenvalues --    4.47559   4.48219   4.48816   4.50177   4.50301
 Alpha virt. eigenvalues --    4.51333   4.51820   4.52812   4.53594   4.55114
 Alpha virt. eigenvalues --    4.55736   4.56269   4.56853   4.58093   4.59105
 Alpha virt. eigenvalues --    4.59890   4.61395   4.61856   4.64917   4.66408
 Alpha virt. eigenvalues --    4.68100   4.71403   4.73807   4.75836   4.78080
 Alpha virt. eigenvalues --    4.81276   4.84028   4.84388   4.85113   4.85359
 Alpha virt. eigenvalues --    4.87366   4.88079   4.91368   4.97683   4.99878
 Alpha virt. eigenvalues --    5.00182   5.02091   5.04259   5.07100   5.09522
 Alpha virt. eigenvalues --    5.10482   5.12307   5.13683   5.14135   5.15113
 Alpha virt. eigenvalues --    5.17821   5.18500   5.21515   5.23025   5.25624
 Alpha virt. eigenvalues --    5.26237   5.30035   5.34586   5.36194   5.38394
 Alpha virt. eigenvalues --    5.41324   5.45524   5.47327   5.48918   5.50718
 Alpha virt. eigenvalues --    5.53621   5.55164   5.57127   5.60852   5.64491
 Alpha virt. eigenvalues --    5.65944   5.67409   5.70825   5.73001   5.74641
 Alpha virt. eigenvalues --    5.81425   5.82887   5.84310   5.86092   5.94754
 Alpha virt. eigenvalues --    5.97706   6.00503   6.04518   6.25805   6.41759
 Alpha virt. eigenvalues --    6.46740   6.59045   6.64328   6.77824   6.79482
 Alpha virt. eigenvalues --    6.87486   6.96217   7.02311   7.07091   7.18604
 Alpha virt. eigenvalues --    7.25163   7.39254   7.56088   7.71162   8.00731
 Alpha virt. eigenvalues --   23.87779  24.13570  24.36035  24.54314  24.57585
 Alpha virt. eigenvalues --   24.64749  24.67630  24.70678  24.78824  24.80187
 Alpha virt. eigenvalues --   24.81452  24.90879  25.09958  25.15164  25.31639
 Alpha virt. eigenvalues --   49.98450  50.00229
  Beta  occ. eigenvalues --  -19.70482 -19.68873 -10.56295 -10.55943 -10.55875
  Beta  occ. eigenvalues --  -10.55584 -10.55400 -10.55386 -10.55184 -10.55145
  Beta  occ. eigenvalues --  -10.55141 -10.55124 -10.55042 -10.55035 -10.55005
  Beta  occ. eigenvalues --  -10.54868 -10.54267  -1.22423  -1.00942  -1.00426
  Beta  occ. eigenvalues --   -0.96723  -0.92388  -0.89474  -0.86891  -0.84327
  Beta  occ. eigenvalues --   -0.81727  -0.78288  -0.72412  -0.72204  -0.69656
  Beta  occ. eigenvalues --   -0.67414  -0.62119  -0.61636  -0.60146  -0.58390
  Beta  occ. eigenvalues --   -0.55925  -0.55856  -0.54317  -0.51849  -0.50850
  Beta  occ. eigenvalues --   -0.50526  -0.49862  -0.48926  -0.48065  -0.47849
  Beta  occ. eigenvalues --   -0.46493  -0.46169  -0.44121  -0.42787  -0.42733
  Beta  occ. eigenvalues --   -0.40227  -0.39361  -0.39195  -0.38577  -0.37969
  Beta  occ. eigenvalues --   -0.35135  -0.33112  -0.28112  -0.26682
  Beta virt. eigenvalues --   -0.09394  -0.02928  -0.02037   0.00547   0.01107
  Beta virt. eigenvalues --    0.01411   0.01588   0.02538   0.03009   0.03463
  Beta virt. eigenvalues --    0.04159   0.04779   0.04899   0.05367   0.06023
  Beta virt. eigenvalues --    0.06620   0.06948   0.07117   0.07429   0.08220
  Beta virt. eigenvalues --    0.08847   0.09279   0.09877   0.10407   0.10985
  Beta virt. eigenvalues --    0.11513   0.12023   0.12557   0.12998   0.13333
  Beta virt. eigenvalues --    0.14068   0.14248   0.14454   0.14607   0.15524
  Beta virt. eigenvalues --    0.16181   0.16240   0.17081   0.17491   0.18051
  Beta virt. eigenvalues --    0.18373   0.18611   0.18636   0.19148   0.19248
  Beta virt. eigenvalues --    0.19462   0.19725   0.20502   0.20698   0.21207
  Beta virt. eigenvalues --    0.21381   0.21710   0.22021   0.22252   0.22446
  Beta virt. eigenvalues --    0.22732   0.23369   0.23691   0.24553   0.24663
  Beta virt. eigenvalues --    0.24935   0.25909   0.26079   0.26535   0.27038
  Beta virt. eigenvalues --    0.27267   0.27388   0.27941   0.28255   0.28994
  Beta virt. eigenvalues --    0.29624   0.29852   0.30311   0.30774   0.31326
  Beta virt. eigenvalues --    0.31812   0.32392   0.32954   0.33251   0.33798
  Beta virt. eigenvalues --    0.34461   0.34749   0.35996   0.36546   0.37231
  Beta virt. eigenvalues --    0.38258   0.38425   0.39093   0.40740   0.41792
  Beta virt. eigenvalues --    0.42333   0.43991   0.44787   0.46417   0.47793
  Beta virt. eigenvalues --    0.48342   0.49605   0.50085   0.50737   0.51530
  Beta virt. eigenvalues --    0.52128   0.52229   0.52452   0.54031   0.54845
  Beta virt. eigenvalues --    0.54958   0.55026   0.55418   0.56325   0.56669
  Beta virt. eigenvalues --    0.56919   0.57544   0.58044   0.59004   0.59118
  Beta virt. eigenvalues --    0.59183   0.60317   0.60603   0.60959   0.61251
  Beta virt. eigenvalues --    0.62073   0.62966   0.63584   0.63934   0.64460
  Beta virt. eigenvalues --    0.65039   0.65644   0.65945   0.66382   0.66727
  Beta virt. eigenvalues --    0.67551   0.68243   0.68462   0.68594   0.69200
  Beta virt. eigenvalues --    0.69533   0.69680   0.70065   0.70830   0.71103
  Beta virt. eigenvalues --    0.71663   0.72417   0.72607   0.73257   0.73865
  Beta virt. eigenvalues --    0.74629   0.74909   0.75598   0.76249   0.76948
  Beta virt. eigenvalues --    0.77394   0.78189   0.78551   0.79240   0.79342
  Beta virt. eigenvalues --    0.79988   0.80617   0.80685   0.81902   0.82412
  Beta virt. eigenvalues --    0.82917   0.84323   0.85069   0.85866   0.86714
  Beta virt. eigenvalues --    0.87215   0.87607   0.88338   0.88614   0.89477
  Beta virt. eigenvalues --    0.91005   0.91137   0.91899   0.93000   0.93480
  Beta virt. eigenvalues --    0.94057   0.95422   0.96283   0.97503   0.97956
  Beta virt. eigenvalues --    0.98991   0.99824   1.00743   1.01524   1.02064
  Beta virt. eigenvalues --    1.03370   1.04401   1.05242   1.05320   1.06600
  Beta virt. eigenvalues --    1.07177   1.07464   1.09156   1.09582   1.10471
  Beta virt. eigenvalues --    1.11818   1.11906   1.12251   1.13471   1.13946
  Beta virt. eigenvalues --    1.14437   1.14879   1.15792   1.16040   1.16458
  Beta virt. eigenvalues --    1.16960   1.18067   1.18717   1.19817   1.21053
  Beta virt. eigenvalues --    1.21295   1.22044   1.22803   1.24220   1.25726
  Beta virt. eigenvalues --    1.26426   1.26942   1.27227   1.28074   1.28843
  Beta virt. eigenvalues --    1.29512   1.30245   1.30627   1.31675   1.32182
  Beta virt. eigenvalues --    1.33064   1.33252   1.34076   1.34834   1.35601
  Beta virt. eigenvalues --    1.36140   1.36876   1.38155   1.38798   1.39652
  Beta virt. eigenvalues --    1.39945   1.40177   1.40514   1.41401   1.42068
  Beta virt. eigenvalues --    1.42439   1.43015   1.43604   1.44934   1.45887
  Beta virt. eigenvalues --    1.46826   1.48207   1.48516   1.49249   1.50477
  Beta virt. eigenvalues --    1.50894   1.51152   1.53224   1.53692   1.54757
  Beta virt. eigenvalues --    1.57143   1.58501   1.59748   1.60819   1.62288
  Beta virt. eigenvalues --    1.62933   1.65239   1.65714   1.67191   1.68161
  Beta virt. eigenvalues --    1.69245   1.71114   1.72113   1.72622   1.73893
  Beta virt. eigenvalues --    1.74274   1.76387   1.77507   1.79678   1.80620
  Beta virt. eigenvalues --    1.81426   1.81852   1.84070   1.86602   1.87104
  Beta virt. eigenvalues --    1.87767   1.88310   1.90559   1.91651   1.92824
  Beta virt. eigenvalues --    1.96298   1.98434   2.01272   2.01680   2.03406
  Beta virt. eigenvalues --    2.05213   2.08026   2.12902   2.13820   2.16151
  Beta virt. eigenvalues --    2.17229   2.23112   2.26919   2.29120   2.30499
  Beta virt. eigenvalues --    2.38545   2.41152   2.45943   2.47744   2.49981
  Beta virt. eigenvalues --    2.51119   2.54452   2.57563   2.58281   2.59821
  Beta virt. eigenvalues --    2.61427   2.62808   2.64268   2.64810   2.65349
  Beta virt. eigenvalues --    2.66108   2.68698   2.70269   2.71012   2.72025
  Beta virt. eigenvalues --    2.73700   2.73847   2.75130   2.75739   2.76391
  Beta virt. eigenvalues --    2.76535   2.77369   2.77993   2.78390   2.78949
  Beta virt. eigenvalues --    2.79854   2.80667   2.81111   2.81930   2.82290
  Beta virt. eigenvalues --    2.83473   2.83663   2.84497   2.85209   2.85822
  Beta virt. eigenvalues --    2.86031   2.86177   2.86421   2.87937   2.88465
  Beta virt. eigenvalues --    2.89084   2.89285   2.89724   2.89857   2.90770
  Beta virt. eigenvalues --    2.91560   2.92923   2.93103   2.93328   2.94090
  Beta virt. eigenvalues --    2.96079   2.96683   2.96850   2.97191   2.98119
  Beta virt. eigenvalues --    3.01092   3.01520   3.02282   3.04305   3.05217
  Beta virt. eigenvalues --    3.06511   3.07688   3.08093   3.09921   3.10541
  Beta virt. eigenvalues --    3.10969   3.12528   3.12876   3.12942   3.13603
  Beta virt. eigenvalues --    3.14146   3.14697   3.15672   3.15929   3.17098
  Beta virt. eigenvalues --    3.17915   3.19265   3.19682   3.19765   3.20222
  Beta virt. eigenvalues --    3.21554   3.22094   3.22619   3.23983   3.24114
  Beta virt. eigenvalues --    3.24495   3.24697   3.25909   3.26320   3.27606
  Beta virt. eigenvalues --    3.28864   3.29223   3.29340   3.30004   3.31469
  Beta virt. eigenvalues --    3.31579   3.32575   3.33478   3.34525   3.34663
  Beta virt. eigenvalues --    3.35325   3.36314   3.37629   3.39453   3.39821
  Beta virt. eigenvalues --    3.40245   3.41901   3.43390   3.44728   3.45652
  Beta virt. eigenvalues --    3.46036   3.46708   3.47283   3.48125   3.48679
  Beta virt. eigenvalues --    3.50729   3.50909   3.51950   3.52817   3.53021
  Beta virt. eigenvalues --    3.53699   3.54162   3.54754   3.55455   3.57190
  Beta virt. eigenvalues --    3.58192   3.58464   3.59851   3.61117   3.61637
  Beta virt. eigenvalues --    3.62876   3.63537   3.64614   3.67758   3.68100
  Beta virt. eigenvalues --    3.69531   3.70068   3.70743   3.71106   3.71436
  Beta virt. eigenvalues --    3.71662   3.74135   3.76298   3.76708   3.76912
  Beta virt. eigenvalues --    3.77696   3.78344   3.78641   3.79107   3.79744
  Beta virt. eigenvalues --    3.80330   3.82061   3.82724   3.84151   3.86472
  Beta virt. eigenvalues --    3.86896   3.87420   3.89018   3.89975   3.91773
  Beta virt. eigenvalues --    3.92291   3.92732   3.94945   3.96243   3.96839
  Beta virt. eigenvalues --    3.97559   3.99603   3.99776   4.02295   4.03626
  Beta virt. eigenvalues --    4.05595   4.06661   4.06691   4.07542   4.09610
  Beta virt. eigenvalues --    4.10519   4.11439   4.12728   4.14065   4.14551
  Beta virt. eigenvalues --    4.15246   4.16129   4.17331   4.18163   4.20155
  Beta virt. eigenvalues --    4.21939   4.23809   4.24436   4.26228   4.27137
  Beta virt. eigenvalues --    4.27938   4.28319   4.28805   4.29355   4.30371
  Beta virt. eigenvalues --    4.32137   4.32527   4.33732   4.34078   4.35360
  Beta virt. eigenvalues --    4.36715   4.36908   4.38676   4.40390   4.40899
  Beta virt. eigenvalues --    4.41556   4.42210   4.42765   4.44883   4.45291
  Beta virt. eigenvalues --    4.45638   4.47648   4.48328   4.48950   4.50242
  Beta virt. eigenvalues --    4.50374   4.51488   4.51997   4.52932   4.53685
  Beta virt. eigenvalues --    4.55186   4.55838   4.56361   4.57038   4.58356
  Beta virt. eigenvalues --    4.59224   4.60012   4.61683   4.62025   4.65082
  Beta virt. eigenvalues --    4.66537   4.68451   4.71507   4.73891   4.75927
  Beta virt. eigenvalues --    4.78294   4.81420   4.84425   4.84524   4.85441
  Beta virt. eigenvalues --    4.85557   4.87632   4.88368   4.91413   4.98260
  Beta virt. eigenvalues --    4.99987   5.00339   5.02287   5.04384   5.08353
  Beta virt. eigenvalues --    5.09642   5.11321   5.12395   5.14218   5.14922
  Beta virt. eigenvalues --    5.15724   5.17942   5.18952   5.22014   5.23266
  Beta virt. eigenvalues --    5.26280   5.26440   5.31435   5.35162   5.36272
  Beta virt. eigenvalues --    5.38596   5.41635   5.45705   5.48015   5.48892
  Beta virt. eigenvalues --    5.51161   5.53746   5.55358   5.57663   5.61420
  Beta virt. eigenvalues --    5.65370   5.66753   5.67758   5.71336   5.73064
  Beta virt. eigenvalues --    5.74748   5.81587   5.83009   5.84413   5.86166
  Beta virt. eigenvalues --    5.94956   5.98591   6.00548   6.04571   6.25893
  Beta virt. eigenvalues --    6.41832   6.46791   6.59675   6.64388   6.81468
  Beta virt. eigenvalues --    6.82987   6.87752   6.96574   7.05319   7.08709
  Beta virt. eigenvalues --    7.20426   7.26346   7.39630   7.59699   7.73399
  Beta virt. eigenvalues --    8.01173  23.87788  24.13585  24.36043  24.54516
  Beta virt. eigenvalues --   24.57872  24.64764  24.67621  24.70730  24.78843
  Beta virt. eigenvalues --   24.80180  24.81508  24.90910  25.09968  25.15188
  Beta virt. eigenvalues --   25.31662  49.98329  49.99627
          Condensed to atoms (all electrons):
               1          2          3          4          5          6
     1  C    6.441893   0.727438  -0.694545   0.822916   0.104938   0.028960
     2  C    0.727438   6.808641   0.477311  -0.980668  -0.407100   0.123247
     3  C   -0.694545   0.477311   8.335206  -1.610774   1.193878  -0.320615
     4  C    0.822916  -0.980668  -1.610774   8.499212  -1.341913   1.310909
     5  C    0.104938  -0.407100   1.193878  -1.341913   6.857579  -1.155449
     6  C    0.028960   0.123247  -0.320615   1.310909  -1.155449   9.354325
     7  H   -0.011000   0.000390   0.002010  -0.010693   0.458103  -0.138643
     8  H    0.347133  -0.005624   0.023180   0.006744  -0.032411   0.033723
     9  H    0.023565   0.375642  -0.075897   0.062229   0.003899  -0.011491
    10  H   -0.015027  -0.044063   0.384651  -0.032814  -0.014329   0.004556
    11  C   -0.859130   0.160073   0.558020  -1.245584   0.671164  -1.795651
    12  C   -0.040547  -0.271524  -1.261898   1.267537  -0.532066   0.057565
    13  C   -0.392538   0.123105   0.813958  -0.251201   0.452138  -2.116714
    14  H    0.010688  -0.000009   0.003809   0.001334   0.045942  -0.051182
    15  C    0.156659  -0.372537  -1.248400   0.803352  -0.565319   1.238154
    16  H    0.000407  -0.000475   0.003363  -0.014046   0.001218   0.013182
    17  C    0.001848  -0.094101   0.007561  -0.301609   0.206959  -0.358391
    18  C   -0.159888  -0.132996   0.077153  -0.579045   0.097092  -0.323261
    19  C   -0.001461  -0.132414  -0.557324  -0.421897   0.012473   0.044547
    20  H    0.000096   0.000197  -0.000228  -0.013863  -0.000585   0.000365
    21  C   -0.054151   0.173617   0.256702  -0.430381  -0.034585  -0.351348
    22  H    0.000044   0.033280   0.060554  -0.017700  -0.001023  -0.007731
    23  H    0.000036  -0.001909  -0.005984   0.002323   0.000406   0.004545
    24  C   -0.001434  -0.007472  -0.053317  -0.023661   0.003968  -0.032965
    25  H   -0.000001  -0.000003   0.000110   0.001583  -0.000023   0.000290
    26  H   -0.000002  -0.000020  -0.000301  -0.000184   0.000028   0.000145
    27  H    0.000001   0.000009  -0.000194   0.000735  -0.000028  -0.000113
    28  O    0.000001  -0.000031  -0.000711  -0.000542  -0.000115   0.000502
    29  O   -0.000016   0.000038   0.000361   0.002737  -0.000077  -0.000574
    30  H    0.000009  -0.000016   0.000062   0.000221   0.000171  -0.000044
               7          8          9         10         11         12
     1  C   -0.011000   0.347133   0.023565  -0.015027  -0.859130  -0.040547
     2  C    0.000390  -0.005624   0.375642  -0.044063   0.160073  -0.271524
     3  C    0.002010   0.023180  -0.075897   0.384651   0.558020  -1.261898
     4  C   -0.010693   0.006744   0.062229  -0.032814  -1.245584   1.267537
     5  C    0.458103  -0.032411   0.003899  -0.014329   0.671164  -0.532066
     6  C   -0.138643   0.033723  -0.011491   0.004556  -1.795651   0.057565
     7  H    0.482395  -0.006597  -0.000112   0.000034   0.054051  -0.009060
     8  H   -0.006597   0.483679  -0.006837  -0.000076   0.000791   0.002845
     9  H   -0.000112  -0.006837   0.484926  -0.006598   0.000913   0.002572
    10  H    0.000034  -0.000076  -0.006598   0.471679   0.010764   0.017405
    11  C    0.054051   0.000791   0.000913   0.010764   8.086691  -0.018662
    12  C   -0.009060   0.002845   0.002572   0.017405  -0.018662   6.663409
    13  C    0.029868   0.000091  -0.000605   0.001651   1.575817  -0.113814
    14  H    0.002116  -0.000015  -0.000003   0.000014   0.366632  -0.016060
    15  C   -0.006163   0.000866   0.003530   0.002717  -1.777771   1.504753
    16  H   -0.000014  -0.000001   0.000000  -0.000002  -0.009622   0.008364
    17  C   -0.000481   0.000040   0.000246   0.001769   0.149446  -0.213792
    18  C    0.001953   0.001654  -0.003203   0.033092   0.164542   0.213939
    19  C   -0.000387   0.000043  -0.000112   0.001679   0.071852  -0.286794
    20  H   -0.000000  -0.000000   0.000000  -0.000000   0.033999  -0.001696
    21  C    0.000178   0.000137  -0.000884   0.009197   0.310739  -0.949592
    22  H    0.000000  -0.000001   0.000033   0.001133   0.008175  -0.060182
    23  H    0.000000  -0.000000   0.000000   0.000044  -0.000492   0.057387
    24  C   -0.000007   0.000001  -0.000003   0.000387  -0.047737  -0.310556
    25  H    0.000000  -0.000000  -0.000000  -0.000000  -0.001510   0.010542
    26  H    0.000000   0.000000  -0.000000   0.000000  -0.000040  -0.005492
    27  H   -0.000000  -0.000000   0.000000   0.000000   0.000016   0.004518
    28  O   -0.000000  -0.000000   0.000000   0.000000  -0.001202  -0.004597
    29  O    0.000000  -0.000000  -0.000000  -0.000000  -0.001962  -0.008676
    30  H   -0.000000   0.000000   0.000000  -0.000000  -0.000218   0.000295
              13         14         15         16         17         18
     1  C   -0.392538   0.010688   0.156659   0.000407   0.001848  -0.159888
     2  C    0.123105  -0.000009  -0.372537  -0.000475  -0.094101  -0.132996
     3  C    0.813958   0.003809  -1.248400   0.003363   0.007561   0.077153
     4  C   -0.251201   0.001334   0.803352  -0.014046  -0.301609  -0.579045
     5  C    0.452138   0.045942  -0.565319   0.001218   0.206959   0.097092
     6  C   -2.116714  -0.051182   1.238154   0.013182  -0.358391  -0.323261
     7  H    0.029868   0.002116  -0.006163  -0.000014  -0.000481   0.001953
     8  H    0.000091  -0.000015   0.000866  -0.000001   0.000040   0.001654
     9  H   -0.000605  -0.000003   0.003530   0.000000   0.000246  -0.003203
    10  H    0.001651   0.000014   0.002717  -0.000002   0.001769   0.033092
    11  C    1.575817   0.366632  -1.777771  -0.009622   0.149446   0.164542
    12  C   -0.113814  -0.016060   1.504753   0.008364  -0.213792   0.213939
    13  C    8.536999  -0.033773  -1.457470   0.409868  -0.244518  -0.146536
    14  H   -0.033773   0.479067   0.048315  -0.006881  -0.006258   0.002122
    15  C   -1.457470   0.048315   9.073692  -0.129392  -0.193611  -0.169480
    16  H    0.409868  -0.006881  -0.129392   0.477257   0.062498   0.006061
    17  C   -0.244518  -0.006258  -0.193611   0.062498   6.913375  -0.014348
    18  C   -0.146536   0.002122  -0.169480   0.006061  -0.014348   6.369140
    19  C   -0.665947   0.001275  -0.528845   0.016615   0.484049  -0.363103
    20  H    0.006951  -0.000013  -0.129969   0.002704   0.376781  -0.001354
    21  C    0.200460  -0.001226  -0.582747   0.005779  -0.605163   0.912628
    22  H    0.014947  -0.000002   0.003155   0.000013  -0.017759   0.396081
    23  H    0.001836   0.000000  -0.007803  -0.000004   0.007763  -0.036163
    24  C   -0.131042   0.000173  -0.189319  -0.002129  -0.101969   0.005929
    25  H   -0.000594  -0.000000   0.019758   0.000009   0.060932  -0.012986
    26  H   -0.001180   0.000000  -0.011877  -0.000010  -0.035897  -0.002942
    27  H    0.002169   0.000000  -0.000121  -0.000000   0.014912   0.033033
    28  O   -0.002635   0.000000   0.011637   0.000006  -0.000253   0.006943
    29  O   -0.004717   0.000000   0.009232  -0.000058   0.013972  -0.004316
    30  H   -0.002130  -0.000000  -0.001600   0.000050   0.014202   0.000004
              19         20         21         22         23         24
     1  C   -0.001461   0.000096  -0.054151   0.000044   0.000036  -0.001434
     2  C   -0.132414   0.000197   0.173617   0.033280  -0.001909  -0.007472
     3  C   -0.557324  -0.000228   0.256702   0.060554  -0.005984  -0.053317
     4  C   -0.421897  -0.013863  -0.430381  -0.017700   0.002323  -0.023661
     5  C    0.012473  -0.000585  -0.034585  -0.001023   0.000406   0.003968
     6  C    0.044547   0.000365  -0.351348  -0.007731   0.004545  -0.032965
     7  H   -0.000387  -0.000000   0.000178   0.000000   0.000000  -0.000007
     8  H    0.000043  -0.000000   0.000137  -0.000001  -0.000000   0.000001
     9  H   -0.000112   0.000000  -0.000884   0.000033   0.000000  -0.000003
    10  H    0.001679  -0.000000   0.009197   0.001133   0.000044   0.000387
    11  C    0.071852   0.033999   0.310739   0.008175  -0.000492  -0.047737
    12  C   -0.286794  -0.001696  -0.949592  -0.060182   0.057387  -0.310556
    13  C   -0.665947   0.006951   0.200460   0.014947   0.001836  -0.131042
    14  H    0.001275  -0.000013  -0.001226  -0.000002   0.000000   0.000173
    15  C   -0.528845  -0.129969  -0.582747   0.003155  -0.007803  -0.189319
    16  H    0.016615   0.002704   0.005779   0.000013  -0.000004  -0.002129
    17  C    0.484049   0.376781  -0.605163  -0.017759   0.007763  -0.101969
    18  C   -0.363103  -0.001354   0.912628   0.396081  -0.036163   0.005929
    19  C    8.786995   0.068631  -0.085726  -0.033149   0.026688  -0.647032
    20  H    0.068631   0.455190   0.022454   0.000049  -0.000134   0.014839
    21  C   -0.085726   0.022454   7.659856  -0.010715   0.330134  -0.146041
    22  H   -0.033149   0.000049  -0.010715   0.468036  -0.006629  -0.000987
    23  H    0.026688  -0.000134   0.330134  -0.006629   0.475128  -0.007919
    24  C   -0.647032   0.014839  -0.146041  -0.000987  -0.007919   7.260034
    25  H   -0.007448  -0.001535  -0.054739   0.000020   0.000298   0.212044
    26  H   -0.009370  -0.001862  -0.005271   0.000007   0.000203   0.434760
    27  H   -0.217578   0.000162   0.075866  -0.000034   0.000721   0.447455
    28  O   -0.026647   0.000848   0.021829  -0.000005  -0.000306  -0.065095
    29  O   -0.016167  -0.000717  -0.013640  -0.000003   0.000038   0.074199
    30  H    0.010209  -0.001115  -0.001336   0.000001   0.000006  -0.016438
              25         26         27         28         29         30
     1  C   -0.000001  -0.000002   0.000001   0.000001  -0.000016   0.000009
     2  C   -0.000003  -0.000020   0.000009  -0.000031   0.000038  -0.000016
     3  C    0.000110  -0.000301  -0.000194  -0.000711   0.000361   0.000062
     4  C    0.001583  -0.000184   0.000735  -0.000542   0.002737   0.000221
     5  C   -0.000023   0.000028  -0.000028  -0.000115  -0.000077   0.000171
     6  C    0.000290   0.000145  -0.000113   0.000502  -0.000574  -0.000044
     7  H    0.000000   0.000000  -0.000000  -0.000000   0.000000  -0.000000
     8  H   -0.000000   0.000000  -0.000000  -0.000000  -0.000000   0.000000
     9  H   -0.000000  -0.000000   0.000000   0.000000  -0.000000   0.000000
    10  H   -0.000000   0.000000   0.000000   0.000000  -0.000000  -0.000000
    11  C   -0.001510  -0.000040   0.000016  -0.001202  -0.001962  -0.000218
    12  C    0.010542  -0.005492   0.004518  -0.004597  -0.008676   0.000295
    13  C   -0.000594  -0.001180   0.002169  -0.002635  -0.004717  -0.002130
    14  H   -0.000000   0.000000   0.000000   0.000000   0.000000  -0.000000
    15  C    0.019758  -0.011877  -0.000121   0.011637   0.009232  -0.001600
    16  H    0.000009  -0.000010  -0.000000   0.000006  -0.000058   0.000050
    17  C    0.060932  -0.035897   0.014912  -0.000253   0.013972   0.014202
    18  C   -0.012986  -0.002942   0.033033   0.006943  -0.004316   0.000004
    19  C   -0.007448  -0.009370  -0.217578  -0.026647  -0.016167   0.010209
    20  H   -0.001535  -0.001862   0.000162   0.000848  -0.000717  -0.001115
    21  C   -0.054739  -0.005271   0.075866   0.021829  -0.013640  -0.001336
    22  H    0.000020   0.000007  -0.000034  -0.000005  -0.000003   0.000001
    23  H    0.000298   0.000203   0.000721  -0.000306   0.000038   0.000006
    24  C    0.212044   0.434760   0.447455  -0.065095   0.074199  -0.016438
    25  H    0.421012  -0.028581  -0.022739  -0.071982   0.012334   0.002849
    26  H   -0.028581   0.497830  -0.023017   0.005994  -0.000836   0.000227
    27  H   -0.022739  -0.023017   0.513974   0.011753  -0.000453  -0.000205
    28  O   -0.071982   0.005994   0.011753   8.313452   0.097491  -0.039563
    29  O    0.012334  -0.000836  -0.000453   0.097491   7.763505   0.259694
    30  H    0.002849   0.000227  -0.000205  -0.039563   0.259694   0.515873
          Atomic-Atomic Spin Densities.
               1          2          3          4          5          6
     1  C    0.028949  -0.005643  -0.007488   0.028920  -0.007256  -0.005824
     2  C   -0.005643  -0.022260   0.004632  -0.002938   0.004798  -0.006658
     3  C   -0.007488   0.004632   0.019210  -0.029642   0.007730   0.000530
     4  C    0.028920  -0.002938  -0.029642   0.058198  -0.018989  -0.001211
     5  C   -0.007256   0.004798   0.007730  -0.018989   0.006991   0.003721
     6  C   -0.005824  -0.006658   0.000530  -0.001211   0.003721   0.071159
     7  H   -0.000046   0.000002  -0.000032   0.000010  -0.000046   0.000055
     8  H   -0.000357   0.000079   0.000010  -0.000156   0.000160   0.000108
     9  H    0.000055   0.000107  -0.000086  -0.000045   0.000001  -0.000014
    10  H    0.000108  -0.000190  -0.000449   0.000822  -0.000092  -0.000192
    11  C   -0.015473   0.002017   0.006192  -0.033323   0.012535   0.012885
    12  C    0.006410   0.004781  -0.018612   0.016696  -0.008457  -0.008332
    13  C   -0.017145  -0.000548   0.012894  -0.030519   0.000006  -0.060370
    14  H    0.000012   0.000000  -0.000062   0.000154  -0.000109   0.000392
    15  C    0.004445   0.001793  -0.007857   0.022852  -0.010158  -0.005551
    16  H    0.000008   0.000004   0.000025  -0.000027   0.000018  -0.000014
    17  C    0.002386   0.001951   0.003385   0.007010   0.001161   0.003827
    18  C   -0.001718   0.005223   0.003235  -0.016114   0.000642   0.002397
    19  C    0.000714   0.004438   0.010118  -0.005816  -0.001084   0.007062
    20  H   -0.000010  -0.000004   0.000032   0.000337  -0.000037  -0.000149
    21  C   -0.001779   0.002033   0.003420  -0.012297   0.000450   0.000764
    22  H   -0.000012   0.000334   0.000466  -0.000500  -0.000010  -0.000032
    23  H   -0.000001   0.000014   0.000019  -0.000149  -0.000002  -0.000050
    24  C   -0.000136  -0.000078   0.000940   0.003762   0.000167  -0.001035
    25  H   -0.000006   0.000003   0.000135   0.001379  -0.000004  -0.000238
    26  H    0.000002   0.000001  -0.000005  -0.000319  -0.000003   0.000071
    27  H    0.000001  -0.000004  -0.000047  -0.000181   0.000002   0.000040
    28  O    0.000014   0.000001  -0.000082  -0.001931   0.000027   0.000462
    29  O   -0.000007   0.000012   0.000180   0.000866  -0.000028  -0.000267
    30  H   -0.000000   0.000002  -0.000001  -0.000035  -0.000009  -0.000012
               7          8          9         10         11         12
     1  C   -0.000046  -0.000357   0.000055   0.000108  -0.015473   0.006410
     2  C    0.000002   0.000079   0.000107  -0.000190   0.002017   0.004781
     3  C   -0.000032   0.000010  -0.000086  -0.000449   0.006192  -0.018612
     4  C    0.000010  -0.000156  -0.000045   0.000822  -0.033323   0.016696
     5  C   -0.000046   0.000160   0.000001  -0.000092   0.012535  -0.008457
     6  C    0.000055   0.000108  -0.000014  -0.000192   0.012885  -0.008332
     7  H    0.000304   0.000001  -0.000000  -0.000000  -0.000046   0.000020
     8  H    0.000001  -0.000641  -0.000001   0.000000   0.000140   0.000003
     9  H   -0.000000  -0.000001   0.000332   0.000001  -0.000020  -0.000010
    10  H   -0.000000   0.000000   0.000001  -0.000483  -0.000121   0.000290
    11  C   -0.000046   0.000140  -0.000020  -0.000121   0.051147  -0.011586
    12  C    0.000020   0.000003  -0.000010   0.000290  -0.011586   0.055024
    13  C    0.000037   0.000026  -0.000004  -0.000060  -0.032177  -0.001865
    14  H    0.000001  -0.000000   0.000000   0.000000   0.000251   0.000031
    15  C    0.000014  -0.000009  -0.000001   0.000184  -0.039262   0.015308
    16  H    0.000000   0.000000   0.000000  -0.000000   0.000070   0.000044
    17  C   -0.000004  -0.000001   0.000000  -0.000026   0.005307   0.000089
    18  C    0.000005   0.000012  -0.000024  -0.000028   0.006655   0.022142
    19  C    0.000001   0.000000  -0.000001  -0.000043   0.024812  -0.010782
    20  H    0.000000   0.000000  -0.000000   0.000000  -0.001205   0.000661
    21  C    0.000001   0.000002  -0.000004  -0.000211   0.004715  -0.022105
    22  H    0.000000   0.000000   0.000000  -0.000013   0.000082  -0.001723
    23  H   -0.000000   0.000000  -0.000000  -0.000000   0.000005  -0.000821
[...]
   A51        2.46601  -0.01044   0.02028  -0.25516  -0.22729   2.23872
   A52        3.05615  -0.00007   0.12212   0.20440   0.32684   3.38300
    D1        0.00321  -0.00001  -0.00010  -0.00007  -0.00018   0.00303
    D2       -3.13437  -0.00012  -0.00119  -0.00037  -0.00155  -3.13592
    D3        3.13975   0.00008   0.00068   0.00005   0.00071   3.14046
    D4        0.00217  -0.00003  -0.00041  -0.00025  -0.00066   0.00151
    D5        0.00071  -0.00008  -0.00071   0.00052  -0.00020   0.00051
    D6       -3.14073   0.00001  -0.00019   0.00197   0.00179  -3.13895
    D7       -3.13580  -0.00017  -0.00149   0.00040  -0.00111  -3.13691
    D8        0.00594  -0.00009  -0.00097   0.00185   0.00088   0.00683
    D9       -0.00185   0.00004   0.00032   0.00002   0.00035  -0.00150
   D10       -3.13549  -0.00011  -0.00096   0.00068  -0.00027  -3.13576
   D11        3.13573   0.00016   0.00140   0.00033   0.00173   3.13746
   D12        0.00209   0.00000   0.00013   0.00098   0.00111   0.00320
   D13       -0.00334   0.00002   0.00027  -0.00040  -0.00012  -0.00346
   D14        3.14014  -0.00009  -0.00063  -0.00132  -0.00191   3.13823
   D15        3.13027   0.00016   0.00154  -0.00107   0.00046   3.13073
   D16       -0.00943   0.00004   0.00064  -0.00199  -0.00132  -0.01075
   D17        0.00714  -0.00010  -0.00106   0.00081  -0.00026   0.00688
   D18       -3.13257  -0.00012  -0.00100  -0.00076  -0.00176  -3.13432
   D19       -3.13628   0.00001  -0.00019   0.00169   0.00146  -3.13481
   D20        0.00721  -0.00000  -0.00013   0.00013  -0.00004   0.00717
   D21        3.12908   0.00019   0.00171  -0.00054   0.00114   3.13022
   D22       -0.00806  -0.00000  -0.00028  -0.00244  -0.00271  -0.01077
   D23       -0.01061   0.00008   0.00080  -0.00146  -0.00066  -0.01127
   D24        3.13543  -0.00011  -0.00119  -0.00336  -0.00451   3.13093
   D25       -0.00593   0.00013   0.00130  -0.00089   0.00042  -0.00551
   D26        3.13375   0.00015   0.00125   0.00068   0.00193   3.13569
   D27        3.13551   0.00005   0.00078  -0.00231  -0.00152   3.13399
   D28       -0.00799   0.00007   0.00073  -0.00074  -0.00001  -0.00800
   D29        0.00222  -0.00008  -0.00068   0.00158   0.00092   0.00314
   D30        3.14134   0.00006  -0.00002   0.00549   0.00549  -3.13635
   D31       -3.13747  -0.00010  -0.00063   0.00001  -0.00059  -3.13806
   D32        0.00166   0.00005   0.00003   0.00392   0.00397   0.00563
   D33       -0.00820   0.00008   0.00081  -0.00190  -0.00109  -0.00928
   D34        3.13661   0.00008  -0.00072   0.00373   0.00296   3.13957
   D35        3.13595  -0.00007   0.00012  -0.00596  -0.00580   3.13015
   D36       -0.00243  -0.00007  -0.00141  -0.00033  -0.00175  -0.00418
   D37        0.00491  -0.00008  -0.00069   0.00119   0.00052   0.00543
   D38        3.13983  -0.00015   0.00087  -0.00720  -0.00627   3.13355
   D39       -3.14090   0.00011   0.00120   0.00298   0.00417  -3.13674
   D40       -0.00599   0.00004   0.00275  -0.00540  -0.00262  -0.00861
   D41       -3.13533   0.00015  -0.00173   0.01088   0.00906  -3.12627
   D42        0.00235   0.00003  -0.00095   0.00121   0.00022   0.00257
   D43        0.01066  -0.00004  -0.00369   0.00902   0.00527   0.01592
   D44       -3.13485  -0.00016  -0.00291  -0.00065  -0.00358  -3.13843
   D45        0.00454  -0.00000  -0.00011   0.00049   0.00035   0.00490
   D46       -3.13030   0.00006  -0.00169   0.00901   0.00724  -3.12306
   D47       -3.14015  -0.00001   0.00136  -0.00496  -0.00360   3.13943
   D48        0.00819   0.00006  -0.00022   0.00356   0.00329   0.01148
   D49       -0.01465   0.00036   0.00497  -0.00271   0.00230  -0.01235
   D50        3.14138   0.00023  -0.00247   0.01175   0.00921  -3.13259
   D51        3.12019   0.00030   0.00655  -0.01124  -0.00460   3.11560
   D52       -0.00697   0.00016  -0.00089   0.00322   0.00232  -0.00465
   D53        0.02956  -0.00069  -0.01136   0.00740  -0.00407   0.02549
   D54       -3.07629   0.00004  -0.00579   0.02003   0.01404  -3.06225
   D55       -3.12663  -0.00055  -0.00384  -0.00720  -0.01102  -3.13765
   D56        0.05071   0.00018   0.00173   0.00544   0.00709   0.05780
   D57        0.00494  -0.00036  -0.00299  -0.00451  -0.00749  -0.00255
   D58        3.13671  -0.00011   0.00116  -0.00734  -0.00612   3.13059
   D59       -3.13278  -0.00024  -0.00377   0.00506   0.00123  -3.13156
   D60       -0.00101   0.00000   0.00038   0.00222   0.00259   0.00158
   D61       -0.02477   0.00069   0.01040  -0.00383   0.00664  -0.01814
   D62        3.12657   0.00045   0.00628  -0.00095   0.00532   3.13189
   D63        3.08094  -0.00008   0.00483  -0.01646  -0.01150   3.06945
   D64       -0.05090  -0.00033   0.00071  -0.01359  -0.01281  -0.06371
   D65        1.17887  -0.00100  -0.02720  -0.02103  -0.05074   1.12813
   D66       -0.91197   0.00195  -0.00793  -0.04413  -0.05167  -0.96364
   D67       -2.98139  -0.00308  -0.04509   0.00087  -0.04169  -3.02308
   D68       -1.92551  -0.00027  -0.02141  -0.00807  -0.03217  -1.95768
   D69        2.26683   0.00268  -0.00214  -0.03118  -0.03310   2.23373
   D70        0.19741  -0.00235  -0.03930   0.01383  -0.02313   0.17429
   D71        0.56475  -0.00179   0.03488  -0.03884  -0.02635   0.53840
   D72        2.49913  -0.00535   0.03567  -0.14604  -0.10138   2.39775
   D73       -1.40158   0.00476   0.01147   0.06222   0.08709  -1.31449
   D74       -1.12377   0.00177  -0.04081   0.12701   0.08620  -1.03757
         Item               Value     Threshold  Converged?
 Maximum Force            0.017672     0.002500     NO 
 RMS     Force            0.002885     0.001667     NO 
 Maximum Displacement     1.238653     0.010000     NO 
 RMS     Displacement     0.224294     0.006667     NO 
 Predicted change in Energy=-3.849912D-03
 GradGradGradGradGradGradGradGradGradGradGradGradGradGradGradGradGradGrad

                          Input orientation:                          
 ---------------------------------------------------------------------
 Center     Atomic      Atomic             Coordinates (Angstroms)
 Number     Number       Type             X           Y           Z
 ---------------------------------------------------------------------
      1          6           0       -8.412672   -1.480611    0.031813
      2          6           0       -7.654995   -2.659901   -0.023746
      3          6           0       -6.284095   -2.602794   -0.049245
      4          6           0       -5.604777   -1.371560   -0.022496
      5          6           0       -7.774685   -0.268285    0.056938
      6          6           0       -6.369109   -0.187556    0.027223
      7          1           0       -8.341531    0.651123    0.102177
      8          1           0       -9.491812   -1.532894    0.050577
      9          1           0       -8.151479   -3.618984   -0.049118
     10          1           0       -5.722871   -3.523203   -0.097515
     11          6           0       -5.705829    1.087938    0.046534
     12          6           0       -4.153265   -1.276634   -0.044245
     13          6           0       -4.366049    1.179308    0.014540
     14          1           0       -6.319912    1.977733    0.089823
     15          6           0       -3.542889   -0.001144   -0.028982
     16          1           0       -3.873502    2.142256    0.027453
     17          6           0       -2.135557    0.098459   -0.040057
     18          6           0       -3.312534   -2.402864   -0.080893
     19          6           0       -1.322927   -1.019199   -0.051109
     20          1           0       -1.686283    1.083695   -0.019502
     21          6           0       -1.945276   -2.279309   -0.082752
     22          1           0       -3.740846   -3.393679   -0.096484
     23          1           0       -1.331587   -3.170113   -0.101153
     24          6           0        0.167987   -0.890161    0.039134
     25          1           0        0.451198   -0.463213    1.016126
     26          1           0        0.533795   -0.233209   -0.751817
     27          1           0        0.654197   -1.854772   -0.103020
     28          8           0       -0.842639    0.754553    2.357692
     29          8           0       -1.927458    0.131360    2.664918
     30          1           0       -2.385715   -0.052008    1.815086
 ---------------------------------------------------------------------
                    Distance matrix (angstroms):
                    1          2          3          4          5
     1  C    0.000000
     2  C    1.402813   0.000000
     3  C    2.407634   1.372325   0.000000
     4  C    2.810536   2.421408   1.406459   0.000000
     5  C    1.370180   2.395968   2.771834   2.435575   0.000000
     6  C    2.418297   2.787219   2.417943   1.410156   1.408205
     7  H    2.134082   3.383795   3.852785   3.405380   1.081052
     8  H    1.080569   2.156285   3.382912   3.891068   2.132558
     9  H    2.155785   1.080268   2.125973   3.396662   3.373485
    10  H    3.379931   2.117507   1.079099   2.156187   3.850751
    11  C    3.731576   4.224983   3.736986   2.462540   2.473785
    12  C    4.264966   3.765097   2.509813   1.454775   3.760543
    13  C    4.842584   5.055507   4.241140   2.835973   3.703528
    14  H    4.042667   4.827317   4.582778   3.426630   2.676199
    15  C    5.089922   4.896778   3.779313   2.475776   4.241090
    16  H    5.807689   6.112530   5.322814   3.917488   4.585935
    17  C    6.473083   6.170333   4.950477   3.767858   5.651873
    18  C    5.184077   4.350437   2.978448   2.514235   4.948354
    19  C    7.105227   6.541233   5.207779   4.296419   6.496208
    20  H    7.198792   7.045569   5.893298   4.624163   6.237173
    21  C    6.517534   5.722694   4.350991   3.770887   6.168122
    22  H    5.049974   3.982999   2.663803   2.751123   5.105240
    23  H    7.281061   6.344430   4.985166   4.636931   7.068175
    24  C    8.600953   8.020909   6.676099   5.793129   7.966999
    25  H    8.976200   8.462691   7.146818   6.211173   8.283911
    26  H    9.066938   8.571768   7.252046   6.285684   8.347823
    27  H    9.075587   8.348484   6.978705   6.278115   8.578378
    28  O    8.228674   7.983604   6.831879   5.732679   7.375156
    29  O    7.182596   6.915542   5.815717   4.796210   6.414930
    30  H    6.445555   6.160172   5.017929   3.934500   5.672641
                    6          7          8          9         10
     6  C    0.000000
     7  H    2.144632   0.000000
     8  H    3.400257   2.468955   0.000000
     9  H    3.867475   4.277011   2.481572   0.000000
    10  H    3.399959   4.931760   4.264760   2.430978   0.000000
    11  C    1.437775   2.672232   4.604611   5.305230   4.613422
    12  C    2.470053   4.612945   5.345535   4.633826   2.741090
    13  C    2.425021   4.011373   5.799205   6.112048   4.895624
    14  H    2.166752   2.418055   4.731489   5.890431   5.536411
    15  C    2.832919   4.844546   6.143474   5.859034   4.142695
    16  H    3.414100   4.710875   6.713618   7.176269   5.960974
    17  C    4.243736   6.232157   7.535517   7.071830   5.097898
    18  C    3.776497   5.886524   6.241603   4.989524   2.658037
    19  C    5.114853   7.216250   8.185652   7.306709   5.062775
    20  H    4.852538   6.670401   8.232723   7.994675   6.125654
    21  C    4.894673   7.038019   7.584531   6.349238   3.977149
    22  H    4.147565   6.129126   6.046301   4.416638   1.986253
    23  H    5.855660   7.986395   8.324228   6.834846   4.405458
    24  C    6.574757   8.648204   9.681165   8.756014   6.453975
    25  H    6.897138   8.910058  10.046888   9.224949   6.980177
    26  H    6.946875   8.960065  10.141293   9.348328   7.099158
    27  H    7.219654   9.340489  10.152275   8.980828   6.591714
    28  O    6.071287   7.831438   9.239231   8.850972   6.938581
    29  O    5.175655   6.926624   8.174593   7.756900   5.949120
    30  H    4.368325   6.237002   7.470150   7.031544   5.181105
                   11         12         13         14         15
    11  C    0.000000
    12  C    2.830176   0.000000
    13  C    1.343273   2.465843   0.000000
    14  H    1.081992   3.911935   2.112044   0.000000
    15  C    2.422832   1.414096   1.439776   3.412027   0.000000
    16  H    2.114089   3.431067   1.081684   2.452729   2.169483
    17  C    3.705862   2.441730   2.479175   4.588830   1.410895
    18  C    4.234359   1.405904   3.735097   5.316304   2.413299
    19  C    4.864092   2.842030   3.754775   5.828492   2.442366
    20  H    4.020091   3.414347   2.681687   4.720357   2.150337
    21  C    5.049438   2.425295   4.222752   6.106523   2.783036
    22  H    4.895559   2.157474   4.616861   5.961405   3.398975
    23  H    6.106292   3.398583   5.304602   7.170786   3.864897
    24  C    6.197955   4.339301   4.984053   7.093674   3.816489
    25  H    6.423018   4.794489   5.187188   7.257009   4.154334
    26  H    6.427729   4.853651   5.156644   7.250512   4.146769
    27  H    7.009410   4.842457   5.867054   7.960117   4.588784
    28  O    5.394740   4.566757   4.252669   6.053091   3.682206
    29  O    4.695430   3.778390   3.750923   5.416073   3.143926
    30  H    3.930702   2.842720   2.946155   4.751241   2.177666
                   16         17         18         19         20
    16  H    0.000000
    17  C    2.683677   0.000000
    18  C    4.580889   2.764698   0.000000
    19  C    4.062808   1.381901   2.423623   0.000000
    20  H    2.430367   1.083033   3.847668   2.134289   0.000000
    21  C    4.824981   2.385751   1.372831   1.405772   3.373555
    22  H    5.538911   3.843847   1.079541   3.389180   4.926868
    23  H    5.890598   3.366551   2.124437   2.151513   4.269351
    24  C    5.052656   2.507978   3.796933   1.499207   2.708849
    25  H    5.144801   2.849965   4.373943   2.143743   2.834480
    26  H    5.066988   2.782453   4.466742   2.134523   2.683146
    27  H    6.040970   3.406142   4.004478   2.147067   3.757580
    28  O    4.067170   2.802017   4.692159   3.029719   2.543840
    29  O    3.845388   2.713167   3.984997   3.010988   2.858534
    30  H    3.197490   1.877972   3.159154   2.355347   2.268202
                   21         22         23         24         25
    21  C    0.000000
    22  H    2.113310   0.000000
    23  H    1.081890   2.419614   0.000000
    24  C    2.531890   4.643810   2.732506   0.000000
    25  H    3.201378   5.234383   3.428403   1.103180   0.000000
    26  H    3.283285   5.356359   3.539551   1.091331   1.784754
    27  H    2.633990   4.656681   2.381904   1.089533   1.797256
    28  O    4.046714   5.624092   4.657037   3.016979   2.226380
    29  O    3.655315   4.831109   4.348096   3.511287   2.954663
    30  H    2.959163   4.081329   3.808640   3.221475   2.975819
                   26         27         28         29         30
    26  H    0.000000
    27  H    1.750685   0.000000
    28  O    3.541086   3.886412   0.000000
    29  O    4.226672   4.274475   1.288251   0.000000
    30  H    3.891704   4.021212   1.823745   0.982770   0.000000
 Stoichiometry    C15H13O2(2)
 Framework group  C1[X(C15H13O2)]
 Deg. of freedom    84
 Full point group                 C1      NOp   1
 Largest Abelian subgroup         C1      NOp   1
 Largest concise Abelian subgroup C1      NOp   1
                         Standard orientation:                         
 ---------------------------------------------------------------------
 Center     Atomic      Atomic             Coordinates (Angstroms)
 Number     Number       Type             X           Y           Z
 ---------------------------------------------------------------------
      1          6           0        4.420634    0.010835    0.334159
      2          6           0        3.852329    1.275270    0.548912
      3          6           0        2.504661    1.468224    0.376180
      4          6           0        1.661733    0.414103   -0.019329
      5          6           0        3.621098   -1.032185   -0.053457
      6          6           0        2.236722   -0.854389   -0.240364
      7          1           0        4.040513   -2.014313   -0.221347
      8          1           0        5.482705   -0.133761    0.471001
      9          1           0        4.477561    2.103335    0.849531
     10          1           0        2.091325    2.451132    0.542014
     11          6           0        1.404325   -1.951228   -0.654197
     12          6           0        0.229217    0.584356   -0.207170
     13          6           0        0.083240   -1.794421   -0.840016
     14          1           0        1.874473   -2.913064   -0.810845
     15          6           0       -0.550770   -0.520657   -0.619765
     16          1           0       -0.536913   -2.623481   -1.153240
     17          6           0       -1.942169   -0.365448   -0.794538
     18          6           0       -0.430625    1.808000    0.002277
     19          6           0       -2.579312    0.838261   -0.560481
     20          1           0       -2.524146   -1.225253   -1.102755
     21          6           0       -1.787440    1.931024   -0.166778
     22          1           0        0.130897    2.675423    0.314816
     23          1           0       -2.260588    2.887042    0.013907
     24          6           0       -4.071116    0.952940   -0.655291
     25          1           0       -4.547265    0.335030    0.124757
     26          1           0       -4.410021    0.608023   -1.633647
     27          1           0       -4.391415    1.989858   -0.558898
     28          8           0       -3.641323   -1.406250    1.175463
     29          8           0       -2.534111   -1.088934    1.752509
     30          1           0       -1.938803   -0.766608    1.040084
 ---------------------------------------------------------------------
 Rotational constants (GHZ):           1.0292602           0.2940074           0.2571880
 Standard basis: 6-311+G(2df,2p) (5D, 7F)
 There are   780 symmetry adapted cartesian basis functions of A   symmetry.
 There are   695 symmetry adapted basis functions of A   symmetry.
   695 basis functions,  1027 primitive gaussians,   780 cartesian basis functions
    60 alpha electrons       59 beta electrons
       nuclear repulsion energy      1120.4924638310 Hartrees.
 NAtoms=   30 NActive=   30 NUniq=   30 SFac= 1.00D+00 NAtFMM=   60 NAOKFM=F Big=F
 Integral buffers will be    131072 words long.
 Raffenetti 2 integral format.
 Two-electron integral symmetry is turned on.
 One-electron integrals computed using PRISM.
 NBasis=   695 RedAO= T EigKep=  1.67D-06  NBF=   695
 NBsUse=   687 1.00D-06 EigRej=  9.44D-07 NBFU=   687
 Initial guess from the checkpoint file:  "/scratch/dinius.ab/QMscratch/Gau-20034.chk"
 B after Tr=     0.000000   -0.000000    0.000000
         Rot=    0.997355   -0.069184   -0.021915   -0.003944 Ang=  -8.34 deg.
 Initial guess <Sx>= 0.0000 <Sy>= 0.0000 <Sz>= 0.5000 <S**2>= 0.7557 S= 0.5028
 ExpMin= 4.38D-02 ExpMax= 8.59D+03 ExpMxC= 1.30D+03 IAcc=2 IRadAn=         4 AccDes= 0.00D+00
 Harris functional with IExCor= 1009 and IRadAn=       4 diagonalized for initial guess.
 HarFok:  IExCor= 1009 AccDes= 0.00D+00 IRadAn=         4 IDoV= 1 UseB2=F ITyADJ=14
 ICtDFT=  3500011 ScaDFX=  1.000000  1.000000  1.000000  1.000000
 FoFCou: FMM=F IPFlag=           0 FMFlag=      100000 FMFlg1=           0
         NFxFlg=           0 DoJE=T BraDBF=F KetDBF=T FulRan=T
         wScrn=  0.000000 ICntrl=       500 IOpCl=  0 I1Cent=   200000004 NGrid=           0
         NMat0=    1 NMatS0=      1 NMatT0=    0 NMatD0=    1 NMtDS0=    0 NMtDT0=    0
 Petite list used in FoFCou.
 Requested convergence on RMS density matrix=1.00D-08 within 128 cycles.
 Requested convergence on MAX density matrix=1.00D-06.
 Requested convergence on             energy=1.00D-06.
 No special actions if energy rises.
