 Entering Gaussian System, Link 0=g16
 Input=rxn907.com
 Output=rxn907.log
 Initial command:
 /shared/centos7/gaussian/g16/l1.exe "/scratch/dinius.ab/QMscratch/Gau-17563.inp" -scrdir="/scratch/dinius.ab/QMscratch/"
 Entering Link 1 = /shared/centos7/gaussian/g16/l1.exe PID=     17564.
  
 Copyright (c) 1988,1990,1992,1993,1995,1998,2003,2009,2016,
            Gaussian, Inc.  All Rights Reserved.
  
 This is part of the Gaussian(R) 16 program.  It is based on
 the Gaussian(R) 09 system (copyright 2009, Gaussian, Inc.),
 the Gaussian(R) 03 system (copyright 2003, Gaussian, Inc.),
 the Gaussian(R) 98 system (copyright 1998, Gaussian, Inc.),
 the Gaussian(R) 94 system (copyright 1995, Gaussian, Inc.),
 the Gaussian 92(TM) system (copyright 1992, Gaussian, Inc.),
 the Gaussian 90(TM) system (copyright 1990, Gaussian, Inc.),
 the Gaussian 88(TM) system (copyright 1988, Gaussian, Inc.),
 the Gaussian 86(TM) system (copyright 1986, Carnegie Mellon
 University), and the Gaussian 82(TM) system (copyright 1983,
 Carnegie Mellon University). Gaussian is a federally registered
 trademark of Gaussian, Inc.
  
 This software contains proprietary and confidential information,
 including trade secrets, belonging to Gaussian, Inc.
  
 This software is provided under written license and may be
 used, copied, transmitted, or stored only in accord with that
 written license.
  
 The following legend is applicable only to US Government
 contracts under FAR:
  
                    RESTRICTED RIGHTS LEGEND
  
 Use, reproduction and disclosure by the US Government is
 subject to restrictions as set forth in subparagraphs (a)
 and (c) of the Commercial Computer Software - Restricted
 Rights clause in FAR 52.227-19.
  
 Gaussian, Inc.
 340 Quinnipiac St., Bldg. 40, Wallingford CT 06492
  
  
 ---------------------------------------------------------------
 Warning -- This program may not be used in any manner that
 competes with the business of Gaussian, Inc. or will provide
 assistance to any competitor of Gaussian, Inc.  The licensee
 of this program is prohibited from giving any competitor of
 Gaussian, Inc. access to this program.  By using this program,
 the user acknowledges that Gaussian, Inc. is engaged in the
 business of creating and licensing software in the field of
 computational chemistry and represents and warrants to the
 licensee that it is not a competitor of Gaussian, Inc. and that
 it will not use this program in any manner prohibited above.
 ---------------------------------------------------------------
  

 Cite this work as:
 Gaussian 16, Revision A.03,
 M. J. Frisch, G. W. Trucks, H. B. Schlegel, G. E. Scuseria, 
 M. A. Robb, J. R. Cheeseman, G. Scalmani, V. Barone, 
 G. A. Petersson, H. Nakatsuji, X. Li, M. Caricato, A. V. Marenich, 
 J. Bloino, B. G. Janesko, R. Gomperts, B. Mennucci, H. P. Hratchian, 
 J. V. Ortiz, A. F. Izmaylov, J. L. Sonnenberg, D. Williams-Young, 
 F. Ding, F. Lipparini, F. Egidi, J. Goings, B. Peng, A. Petrone, 
 T. Henderson, D. Ranasinghe, V. G. Zakrzewski, J. Gao, N. Rega, 
 G. Zheng, W. Liang, M. Hada, M. Ehara, K. Toyota, R. Fukuda, 
 J. Hasegawa, M. Ishida, T. Nakajima, Y. Honda, O. Kitao, H. Nakai, 
 T. Vreven, K. Throssell, J. A. Montgomery, Jr., J. E. Peralta, 
 F. Ogliaro, M. J. Bearpark, J. J. Heyd, E. N. Brothers, K. N. Kudin, 
 V. N. Staroverov, T. A. Keith, R. Kobayashi, J. Normand, 
 K. Raghavachari, A. P. Rendell, J. C. Burant, S. S. Iyengar, 
 J. Tomasi, M. Cossi, J. M. Millam, M. Klene, C. Adamo, R. Cammi, 
 J. W. Ochterski, R. L. Martin, K. Morokuma, O. Farkas, 
 J. B. Foresman, and D. J. Fox, Gaussian, Inc., Wallingford CT, 2016.
 
 ******************************************
 Gaussian 16:  EM64L-G16RevA.03 25-Dec-2016
                27-Nov-2018 
 ******************************************
 ----------------------------------------------------------------------
 #m062x/6-311+g(2df,2p) Opt=(ModRedun,Loose,maxcycle=1000) Int(Grid=SG1
 ) freq
 ----------------------------------------------------------------------
 1/6=1000,7=-1,18=120,19=15,26=2,38=1/1,3;
 2/9=110,12=2,17=6,18=5,40=1/2;
 3/5=4,6=6,7=214,11=2,25=1,30=1,71=1,74=-55,75=1/1,2,3;
 4//1;
 5/5=2,38=5/2;
 6/7=2,8=2,9=2,10=2,28=1/1;
 7//1,2,3,16;
 1/6=1000,7=-1,18=20,19=15,26=2/3(2);
 2/9=110/2;
 99//99;
 2/9=110/2;
 3/5=4,6=6,7=214,11=2,25=1,30=1,71=1,74=-55,75=1/1,2,3;
 4/5=5,16=3,69=1/1;
 5/5=2,38=5/2;
 7//1,2,3,16;
 1/6=1000,7=-1,18=20,19=15,26=2/3(-5);
 2/9=110/2;
 6/7=2,8=2,9=2,10=2,19=2,28=1/1;
 99/9=1/99;
 -----
 Title
 -----
 Symbolic Z-matrix:
 Charge =  0 Multiplicity = 2
 C                    -8.75776   1.77117   3.20858 
 C                    -8.7211    0.64656   2.38819 
 C                    -7.57872   2.44598   3.51849 
 H                    -9.70631   2.12027   3.60951 
 C                    -7.50652   0.20312   1.86906 
 H                    -9.63981   0.11604   2.1501 
 C                    -6.32106   0.87436   2.17727 
 H                    -7.48977  -0.67282   1.22445 
 C                    -6.35707   1.99615   3.01403 
 H                    -7.6146    3.32165   4.16209 
 C                    -5.10161   2.70602   3.36815 
 C                    -5.11827   0.42406   1.63088 
 C                    -3.89994   1.03377   1.91938 
 H                    -5.12488  -0.42738   0.95413 
 C                    -3.7574    2.16895   2.92304 
 H                    -2.98752   0.6454    1.47269 
 H                    -5.10158   3.58056   4.01536 
 H                    -3.25506   1.75724   3.80177 
 C                    -2.86728   3.30137   2.36932 
 H                    -1.97518   2.88584   1.89264 
 H                    -1   -2.54262   3.97204   3.17349 
 H                    -3.40867   3.88858   1.62349 
 O                    -1   -1.88998   4.51508   3.87868 
 O                    -0.77789   4.82259   4.79143 
 H                    -0.15262   5.21695   4.15562 
 
 The following ModRedundant input section has been read:
 

 GradGradGradGradGradGradGradGradGradGradGradGradGradGradGradGradGradGrad
 Berny optimization.
 Initialization pass.
                           ----------------------------
                           !    Initial Parameters    !
                           ! (Angstroms and Degrees)  !
 --------------------------                            --------------------------
 ! Name  Definition              Value          Derivative Info.                !
 --------------------------------------------------------------------------------
 ! X21   R(21,-1)               -2.5426         Frozen                          !
 ! Y21   R(21,-2)                3.972          Frozen                          !
 ! Z21   R(21,-3)                3.1735         Frozen                          !
 ! X23   R(23,-1)               -1.89           Frozen                          !
 ! Y23   R(23,-2)                4.5151         Frozen                          !
 ! Z23   R(23,-3)                3.8787         Frozen                          !
 ! R1    R(1,2)                  1.3925         estimate D2E/DX2                !
 ! R2    R(1,3)                  1.3934         estimate D2E/DX2                !
 ! R3    R(1,4)                  1.0874         estimate D2E/DX2                !
 ! R4    R(2,5)                  1.3933         estimate D2E/DX2                !
 ! R5    R(2,6)                  1.0873         estimate D2E/DX2                !
 ! R6    R(3,9)                  1.3962         estimate D2E/DX2                !
 ! R7    R(3,10)                 1.0873         estimate D2E/DX2                !
 ! R8    R(5,7)                  1.3967         estimate D2E/DX2                !
 ! R9    R(5,8)                  1.0877         estimate D2E/DX2                !
 ! R10   R(7,9)                  1.4            estimate D2E/DX2                !
 ! R11   R(7,12)                 1.3957         estimate D2E/DX2                !
 ! R12   R(9,11)                 1.4851         estimate D2E/DX2                !
 ! R13   R(11,15)                1.5144         estimate D2E/DX2                !
 ! R14   R(11,17)                1.088          estimate D2E/DX2                !
 ! R15   R(12,13)                1.3926         estimate D2E/DX2                !
 ! R16   R(12,14)                1.0877         estimate D2E/DX2                !
 ! R17   R(13,15)                1.5219         estimate D2E/DX2                !
 ! R18   R(13,16)                1.0876         estimate D2E/DX2                !
 ! R19   R(15,18)                1.0927         estimate D2E/DX2                !
 ! R20   R(15,19)                1.5431         estimate D2E/DX2                !
 ! R21   R(19,20)                1.0935         estimate D2E/DX2                !
 ! R22   R(19,21)                1.0963         estimate D2E/DX2                !
 ! R23   R(19,22)                1.0928         estimate D2E/DX2                !
 ! R24   R(23,24)                1.4712         estimate D2E/DX2                !
 ! R25   R(24,25)                0.9751         estimate D2E/DX2                !
 ! A1    A(2,1,3)              119.9915         estimate D2E/DX2                !
 ! A2    A(2,1,4)              119.9651         estimate D2E/DX2                !
 ! A3    A(3,1,4)              120.0431         estimate D2E/DX2                !
 ! A4    A(1,2,5)              119.9657         estimate D2E/DX2                !
 ! A5    A(1,2,6)              120.0544         estimate D2E/DX2                !
 ! A6    A(5,2,6)              119.9796         estimate D2E/DX2                !
 ! A7    A(1,3,9)              120.2652         estimate D2E/DX2                !
 ! A8    A(1,3,10)             119.5868         estimate D2E/DX2                !
 ! A9    A(9,3,10)             120.1464         estimate D2E/DX2                !
 ! A10   A(2,5,7)              120.3109         estimate D2E/DX2                !
 ! A11   A(2,5,8)              119.3758         estimate D2E/DX2                !
 ! A12   A(7,5,8)              120.313          estimate D2E/DX2                !
 ! A13   A(5,7,9)              119.6796         estimate D2E/DX2                !
 ! A14   A(5,7,12)             119.3396         estimate D2E/DX2                !
 ! A15   A(9,7,12)             120.976          estimate D2E/DX2                !
 ! A16   A(3,9,7)              119.7782         estimate D2E/DX2                !
 ! A17   A(3,9,11)             119.9701         estimate D2E/DX2                !
 ! A18   A(7,9,11)             120.2517         estimate D2E/DX2                !
 ! A19   A(9,11,15)            120.7146         estimate D2E/DX2                !
 ! A20   A(9,11,17)            121.742          estimate D2E/DX2                !
 ! A21   A(15,11,17)           117.3795         estimate D2E/DX2                !
 ! A22   A(7,12,13)            122.1123         estimate D2E/DX2                !
 ! A23   A(7,12,14)            119.4003         estimate D2E/DX2                !
 ! A24   A(13,12,14)           118.487          estimate D2E/DX2                !
 ! A25   A(12,13,15)           123.033          estimate D2E/DX2                !
 ! A26   A(12,13,16)           119.5065         estimate D2E/DX2                !
 ! A27   A(15,13,16)           117.2983         estimate D2E/DX2                !
 ! A28   A(11,15,13)           112.0374         estimate D2E/DX2                !
 ! A29   A(11,15,18)           107.7769         estimate D2E/DX2                !
 ! A30   A(11,15,19)           110.9289         estimate D2E/DX2                !
 ! A31   A(13,15,18)           106.9986         estimate D2E/DX2                !
 ! A32   A(13,15,19)           111.392          estimate D2E/DX2                !
 ! A33   A(18,15,19)           107.4502         estimate D2E/DX2                !
 ! A34   A(15,19,20)           110.374          estimate D2E/DX2                !
 ! A35   A(15,19,21)           110.8879         estimate D2E/DX2                !
 ! A36   A(15,19,22)           110.699          estimate D2E/DX2                !
 ! A37   A(20,19,21)           108.0972         estimate D2E/DX2                !
 ! A38   A(20,19,22)           108.1106         estimate D2E/DX2                !
 ! A39   A(21,19,22)           108.5796         estimate D2E/DX2                !
 ! A40   A(19,21,23)           160.8724         estimate D2E/DX2                !
 ! A41   A(21,23,24)           161.1273         estimate D2E/DX2                !
 ! A42   A(23,24,25)            99.481          estimate D2E/DX2                !
 ! D1    D(3,1,2,5)             -0.5123         estimate D2E/DX2                !
 ! D2    D(3,1,2,6)            179.6671         estimate D2E/DX2                !
 ! D3    D(4,1,2,5)            179.6819         estimate D2E/DX2                !
 ! D4    D(4,1,2,6)             -0.1387         estimate D2E/DX2                !
 ! D5    D(2,1,3,9)             -0.2652         estimate D2E/DX2                !
 ! D6    D(2,1,3,10)          -179.82           estimate D2E/DX2                !
 ! D7    D(4,1,3,9)            179.5404         estimate D2E/DX2                !
 ! D8    D(4,1,3,10)            -0.0144         estimate D2E/DX2                !
 ! D9    D(1,2,5,7)              0.5864         estimate D2E/DX2                !
 ! D10   D(1,2,5,8)           -179.6337         estimate D2E/DX2                !
 ! D11   D(6,2,5,7)           -179.5928         estimate D2E/DX2                !
 ! D12   D(6,2,5,8)              0.187          estimate D2E/DX2                !
 ! D13   D(1,3,9,7)              0.9664         estimate D2E/DX2                !
 ! D14   D(1,3,9,11)          -178.9098         estimate D2E/DX2                !
 ! D15   D(10,3,9,7)          -179.4813         estimate D2E/DX2                !
 ! D16   D(10,3,9,11)            0.6425         estimate D2E/DX2                !
 ! D17   D(2,5,7,9)              0.116          estimate D2E/DX2                !
 ! D18   D(2,5,7,12)          -179.0957         estimate D2E/DX2                !
 ! D19   D(8,5,7,9)           -179.6618         estimate D2E/DX2                !
 ! D20   D(8,5,7,12)             1.1266         estimate D2E/DX2                !
 ! D21   D(5,7,9,3)             -0.8888         estimate D2E/DX2                !
 ! D22   D(5,7,9,11)           178.987          estimate D2E/DX2                !
 ! D23   D(12,7,9,3)           178.3096         estimate D2E/DX2                !
 ! D24   D(12,7,9,11)           -1.8146         estimate D2E/DX2                !
 ! D25   D(5,7,12,13)         -178.7501         estimate D2E/DX2                !
 ! D26   D(5,7,12,14)            1.4949         estimate D2E/DX2                !
 ! D27   D(9,7,12,13)            2.0487         estimate D2E/DX2                !
 ! D28   D(9,7,12,14)         -177.7062         estimate D2E/DX2                !
 ! D29   D(3,9,11,15)          175.0363         estimate D2E/DX2                !
 ! D30   D(3,9,11,17)           -0.187          estimate D2E/DX2                !
 ! D31   D(7,9,11,15)           -4.8393         estimate D2E/DX2                !
 ! D32   D(7,9,11,17)          179.9374         estimate D2E/DX2                !
 ! D33   D(9,11,15,13)          10.085          estimate D2E/DX2                !
 ! D34   D(9,11,15,18)        -107.3658         estimate D2E/DX2                !
 ! D35   D(9,11,15,19)         135.2616         estimate D2E/DX2                !
 ! D36   D(17,11,15,13)       -174.4892         estimate D2E/DX2                !
 ! D37   D(17,11,15,18)         68.06           estimate D2E/DX2                !
 ! D38   D(17,11,15,19)        -49.3126         estimate D2E/DX2                !
 ! D39   D(7,12,13,15)           4.5338         estimate D2E/DX2                !
 ! D40   D(7,12,13,16)         179.7763         estimate D2E/DX2                !
 ! D41   D(14,12,13,15)       -175.709          estimate D2E/DX2                !
 ! D42   D(14,12,13,16)         -0.4666         estimate D2E/DX2                !
 ! D43   D(12,13,15,11)        -10.1621         estimate D2E/DX2                !
 ! D44   D(12,13,15,18)        107.7534         estimate D2E/DX2                !
 ! D45   D(12,13,15,19)       -135.083          estimate D2E/DX2                !
 ! D46   D(16,13,15,11)        174.4972         estimate D2E/DX2                !
 ! D47   D(16,13,15,18)        -67.5874         estimate D2E/DX2                !
 ! D48   D(16,13,15,19)         49.5762         estimate D2E/DX2                !
 ! D49   D(11,15,19,20)       -170.1396         estimate D2E/DX2                !
 ! D50   D(11,15,19,21)         70.0986         estimate D2E/DX2                !
 ! D51   D(11,15,19,22)        -50.4827         estimate D2E/DX2                !
 ! D52   D(13,15,19,20)        -44.6008         estimate D2E/DX2                !
 ! D53   D(13,15,19,21)       -164.3626         estimate D2E/DX2                !
 ! D54   D(13,15,19,22)         75.056          estimate D2E/DX2                !
 ! D55   D(18,15,19,20)         72.2883         estimate D2E/DX2                !
 ! D56   D(18,15,19,21)        -47.4734         estimate D2E/DX2                !
 ! D57   D(18,15,19,22)       -168.0548         estimate D2E/DX2                !
 ! D58   D(15,19,21,23)        116.3818         estimate D2E/DX2                !
 ! D59   D(20,19,21,23)         -4.7322         estimate D2E/DX2                !
 ! D60   D(22,19,21,23)       -121.7882         estimate D2E/DX2                !
 ! D61   D(19,21,23,24)        -34.6558         estimate D2E/DX2                !
 ! D62   D(21,23,24,25)         91.0227         estimate D2E/DX2                !
 --------------------------------------------------------------------------------
 Trust Radius=3.00D-01 FncErr=1.00D-05 GrdErr=1.00D-04 EigMax=2.50D+02 EigMin=1.00D-04
 Number of steps in this run=    150 maximum allowed number of steps=    150.
 GradGradGradGradGradGradGradGradGradGradGradGradGradGradGradGradGradGrad

                          Input orientation:                          
 ---------------------------------------------------------------------
 Center     Atomic      Atomic             Coordinates (Angstroms)
 Number     Number       Type             X           Y           Z
 ---------------------------------------------------------------------
      1          6           0       -8.757760    1.771170    3.208580
      2          6           0       -8.721100    0.646560    2.388190
      3          6           0       -7.578720    2.445980    3.518490
      4          1           0       -9.706310    2.120270    3.609510
      5          6           0       -7.506520    0.203120    1.869060
      6          1           0       -9.639810    0.116040    2.150100
      7          6           0       -6.321060    0.874360    2.177270
      8          1           0       -7.489770   -0.672820    1.224450
      9          6           0       -6.357070    1.996150    3.014030
     10          1           0       -7.614600    3.321650    4.162090
     11          6           0       -5.101610    2.706020    3.368150
     12          6           0       -5.118270    0.424060    1.630880
     13          6           0       -3.899940    1.033770    1.919380
     14          1           0       -5.124880   -0.427380    0.954130
     15          6           0       -3.757400    2.168950    2.923040
     16          1           0       -2.987520    0.645400    1.472690
     17          1           0       -5.101580    3.580560    4.015360
     18          1           0       -3.255060    1.757240    3.801770
     19          6           0       -2.867280    3.301370    2.369320
     20          1           0       -1.975180    2.885840    1.892640
     21          1           0       -2.542620    3.972040    3.173490
     22          1           0       -3.408670    3.888580    1.623490
     23          8           0       -1.889980    4.515080    3.878680
     24          8           0       -0.777890    4.822590    4.791430
     25          1           0       -0.152620    5.216950    4.155620
 ---------------------------------------------------------------------
                    Distance matrix (angstroms):
                    1          2          3          4          5
     1  C    0.000000
     2  C    1.392527   0.000000
     3  C    1.393394   2.412576   0.000000
     4  H    1.087365   2.152692   2.154301   0.000000
     5  C    2.412197   1.393320   2.785005   3.397603   0.000000
     6  H    2.153566   1.087275   3.398412   2.480169   2.153484
     7  C    2.793810   2.420036   2.418795   3.881175   1.396736
     8  H    3.393767   2.147377   3.872653   4.289862   1.087692
     9  C    2.419045   2.793154   1.396157   3.404029   2.418088
    10  H    2.149415   3.395169   1.087339   2.474653   3.872325
    11  C    3.777147   4.278131   2.495255   4.648077   3.780922
    12  C    4.189240   3.688280   3.702033   5.276572   2.410245
    13  C    5.079784   4.859352   4.252636   6.144181   3.701342
    14  H    4.807700   4.017795   4.566560   5.876314   2.628086
    15  C    5.024277   5.219392   3.877344   5.988584   4.362483
    16  H    6.129954   5.806211   5.339148   7.203012   4.557859
    17  H    4.158418   4.935277   2.769544   4.847752   4.668773
    18  H    5.534598   5.754078   4.387328   6.464316   4.921948
    19  C    6.143584   6.427720   4.924424   7.050206   5.601068
    20  H    6.998398   7.125123   5.851199   7.956388   6.147623
    21  H    6.593408   7.060392   5.273537   7.411992   6.367621
    22  H    5.967303   6.270357   4.802232   6.836042   5.516819
    23  O    7.425933   7.990695   6.064048   8.179400   7.360509
    24  O    8.688780   9.290284   7.315732   9.402986   8.669153
    25  H    9.317656   9.870720   7.951803  10.057865   9.189488
                    6          7          8          9         10
     6  H    0.000000
     7  C    3.404393   0.000000
     8  H    2.470182   2.160443   0.000000
     9  C    3.880409   1.399956   3.407199   0.000000
    10  H    4.292495   3.406169   4.959950   2.157863   0.000000
    11  C    5.365343   2.502046   4.659970   1.485091   2.706374
    12  C    4.561665   1.395713   2.644304   2.432940   4.586362
    13  C    5.817351   2.440029   4.035128   2.856908   4.905389
    14  H    4.702153   2.149755   2.392910   3.411008   5.526748
    15  C    6.278107   2.967236   4.989133   2.606995   4.212120
    16  H    6.707613   3.414871   4.697827   3.943871   5.983733
    17  H    6.006465   3.491307   5.619953   2.255941   2.530580
    18  H    6.796071   3.580340   5.520918   3.209374   4.645729
    19  C    7.487426   4.225619   6.202606   3.781254   5.074592
    20  H    8.153811   4.797264   6.597063   4.609775   6.094538
    21  H    8.141632   4.986450   7.060296   4.298790   5.208197
    22  H    7.303183   4.227790   6.133594   3.769344   4.945275
    23  O    9.077412   5.981982   8.081887   5.200723   5.854560
    24  O   10.376023   7.290342   9.379350   6.501935   7.027766
    25  H   10.956649   7.798821   9.854690   7.083218   7.698919
                   11         12         13         14         15
    11  C    0.000000
    12  C    2.868053   0.000000
    13  C    2.517810   1.392590   0.000000
    14  H    3.955532   1.087651   2.137088   0.000000
    15  C    1.514420   2.562476   1.521935   3.533771   0.000000
    16  H    3.508319   2.148048   1.087600   2.447053   2.239963
    17  H    1.087980   3.955947   3.510443   5.043338   2.234418
    18  H    2.120839   3.156214   2.117232   4.046955   1.092711
    19  C    2.518796   3.727085   2.531964   4.582914   1.543144
    20  H    3.461796   4.000987   2.671251   4.666780   2.179900
    21  H    2.861665   4.647772   3.471101   5.563140   2.188504
    22  H    2.703393   3.863377   2.911844   4.692646   2.183477
    23  O    3.721277   5.675465   4.471948   6.591319   3.147194
    24  O    5.019975   6.940824   5.687796   7.821980   4.405697
    25  H    5.605121   7.348727   6.045012   8.175045   4.878934
                   16         17         18         19         20
    16  H    0.000000
    17  H    4.421491   0.000000
    18  H    2.594683   2.603796   0.000000
    19  C    2.805812   2.789174   2.141640   0.000000
    20  H    2.494145   3.842259   2.560587   1.093495   0.000000
    21  H    3.762604   2.722183   2.409906   1.096308   1.772680
    22  H    3.273885   2.946500   3.051411   1.092786   1.769978
    23  O    4.686983   3.347594   3.078155   2.169418   2.570221
    24  O    5.774549   4.564999   4.063517   3.542073   3.686121
    25  H    6.011143   5.214370   4.660465   3.772227   3.725168
                   21         22         23         24         25
    21  H    0.000000
    22  H    1.777501   0.000000
    23  O    1.103687   2.790126   0.000000
    24  O    2.540755   4.222466   1.471196   0.000000
    25  H    2.868184   4.333372   1.894132   0.975057   0.000000
 Stoichiometry    C11H12O2(2)
 Framework group  C1[X(C11H12O2)]
 Deg. of freedom    69
 Full point group                 C1      NOp   1
 Largest Abelian subgroup         C1      NOp   1
 Largest concise Abelian subgroup C1      NOp   1
                         Standard orientation:                         
 ---------------------------------------------------------------------
 Center     Atomic      Atomic             Coordinates (Angstroms)
 Number     Number       Type             X           Y           Z
 ---------------------------------------------------------------------
      1          6           0       -3.352004   -1.633074    0.054182
      2          6           0       -3.982424   -0.392989   -0.008214
      3          6           0       -1.960635   -1.708082    0.050318
      4          1           0       -3.946080   -2.542515    0.102705
      5          6           0       -3.221203    0.772688   -0.063698
      6          1           0       -5.068070   -0.333553   -0.010723
      7          6           0       -1.826169    0.704002   -0.069417
      8          1           0       -3.723577    1.736479   -0.106154
      9          6           0       -1.193379   -0.543860   -0.021521
     10          1           0       -1.475256   -2.679987    0.096295
     11          6           0        0.288785   -0.632715   -0.049637
     12          6           0       -1.083454    1.885118   -0.106236
     13          6           0        0.308737    1.883410   -0.139536
     14          1           0       -1.601169    2.841650   -0.105208
     15          6           0        1.134656    0.609001   -0.239665
     16          1           0        0.844959    2.829100   -0.171315
     17          1           0        0.805648   -1.589367   -0.012603
     18          1           0        1.551867    0.577199   -1.249091
     19          6           0        2.318506    0.626292    0.750029
     20          1           0        2.819097    1.598222    0.727838
     21          1           0        3.055847   -0.142531    0.490932
     22          1           0        1.971526    0.446119    1.770481
     23          8           0        4.002927   -0.616409    0.180121
     24          8           0        5.283261   -0.849885   -0.505921
     25          1           0        5.887211   -0.429204    0.133616
 ---------------------------------------------------------------------
 Rotational constants (GHZ):           1.9482777           0.3390639           0.2949343
 Standard basis: 6-311+G(2df,2p) (5D, 7F)
 The combination of multiplicity 2 and    94 electrons is impossible.
 Error termination via Lnk1e in /shared/centos7/gaussian/g16/l301.exe at Tue Nov 27 09:57:00 2018.
 Job cpu time:       0 days  0 hours  0 minutes  0.6 seconds.
 Elapsed time:       0 days  0 hours  0 minutes 19.7 seconds.
 File lengths (MBytes):  RWF=    272 Int=      0 D2E=      0 Chk=     32 Scr=     32
