 Entering Gaussian System, Link 0=g16
 Input=rxn937.com
 Output=rxn937.log
