 Entering Gaussian System, Link 0=g16
 Input=rxn936.com
 Output=rxn936.log
