 Entering Gaussian System, Link 0=g16
 Input=rxn907.com
 Output=rxn907.log
 Initial command:
 /shared/centos7/gaussian/g16/l1.exe "/scratch/dinius.ab/QMscratch/Gau-43789.inp" -scrdir="/scratch/dinius.ab/QMscratch/"
 Entering Link 1 = /shared/centos7/gaussian/g16/l1.exe PID=     43790.
  
 Copyright (c) 1988,1990,1992,1993,1995,1998,2003,2009,2016,
            Gaussian, Inc.  All Rights Reserved.
  
 This is part of the Gaussian(R) 16 program.  It is based on
 the Gaussian(R) 09 system (copyright 2009, Gaussian, Inc.),
 the Gaussian(R) 03 system (copyright 2003, Gaussian, Inc.),
 the Gaussian(R) 98 system (copyright 1998, Gaussian, Inc.),
 the Gaussian(R) 94 system (copyright 1995, Gaussian, Inc.),
 the Gaussian 92(TM) system (copyright 1992, Gaussian, Inc.),
 the Gaussian 90(TM) system (copyright 1990, Gaussian, Inc.),
 the Gaussian 88(TM) system (copyright 1988, Gaussian, Inc.),
 the Gaussian 86(TM) system (copyright 1986, Carnegie Mellon
 University), and the Gaussian 82(TM) system (copyright 1983,
 Carnegie Mellon University). Gaussian is a federally registered
 trademark of Gaussian, Inc.
  
 This software contains proprietary and confidential information,
 including trade secrets, belonging to Gaussian, Inc.
  
 This software is provided under written license and may be
 used, copied, transmitted, or stored only in accord with that
 written license.
  
 The following legend is applicable only to US Government
 contracts under FAR:
  
                    RESTRICTED RIGHTS LEGEND
  
 Use, reproduction and disclosure by the US Government is
 subject to restrictions as set forth in subparagraphs (a)
 and (c) of the Commercial Computer Software - Restricted
 Rights clause in FAR 52.227-19.
  
 Gaussian, Inc.
 340 Quinnipiac St., Bldg. 40, Wallingford CT 06492
  
  
 ---------------------------------------------------------------
 Warning -- This program may not be used in any manner that
 competes with the business of Gaussian, Inc. or will provide
 assistance to any competitor of Gaussian, Inc.  The licensee
 of this program is prohibited from giving any competitor of
 Gaussian, Inc. access to this program.  By using this program,
 the user acknowledges that Gaussian, Inc. is engaged in the
 business of creating and licensing software in the field of
 computational chemistry and represents and warrants to the
 licensee that it is not a competitor of Gaussian, Inc. and that
 it will not use this program in any manner prohibited above.
 ---------------------------------------------------------------
  

 Cite this work as:
 Gaussian 16, Revision A.03,
 M. J. Frisch, G. W. Trucks, H. B. Schlegel, G. E. Scuseria, 
 M. A. Robb, J. R. Cheeseman, G. Scalmani, V. Barone, 
 G. A. Petersson, H. Nakatsuji, X. Li, M. Caricato, A. V. Marenich, 
 J. Bloino, B. G. Janesko, R. Gomperts, B. Mennucci, H. P. Hratchian, 
 J. V. Ortiz, A. F. Izmaylov, J. L. Sonnenberg, D. Williams-Young, 
 F. Ding, F. Lipparini, F. Egidi, J. Goings, B. Peng, A. Petrone, 
 T. Henderson, D. Ranasinghe, V. G. Zakrzewski, J. Gao, N. Rega, 
 G. Zheng, W. Liang, M. Hada, M. Ehara, K. Toyota, R. Fukuda, 
 J. Hasegawa, M. Ishida, T. Nakajima, Y. Honda, O. Kitao, H. Nakai, 
 T. Vreven, K. Throssell, J. A. Montgomery, Jr., J. E. Peralta, 
 F. Ogliaro, M. J. Bearpark, J. J. Heyd, E. N. Brothers, K. N. Kudin, 
 V. N. Staroverov, T. A. Keith, R. Kobayashi, J. Normand, 
 K. Raghavachari, A. P. Rendell, J. C. Burant, S. S. Iyengar, 
 J. Tomasi, M. Cossi, J. M. Millam, M. Klene, C. Adamo, R. Cammi, 
 J. W. Ochterski, R. L. Martin, K. Morokuma, O. Farkas, 
 J. B. Foresman, and D. J. Fox, Gaussian, Inc., Wallingford CT, 2016.
 
 ******************************************
 Gaussian 16:  EM64L-G16RevA.03 25-Dec-2016
                24-Oct-2018 
 ******************************************
 ----------------------------------------------------------------------
 #m062x/6-311+g(2df,2p) Opt=(TS,EstmFC,noeigentest,ModRedundant,maxcycl
 es=200) Test
 ----------------------------------------------------------------------
 1/5=1,6=200,11=1,18=120,26=3,38=1/1,3;
 2/9=110,12=2,17=6,18=5,40=1/2;
 3/5=4,6=6,7=214,11=2,25=1,30=1,71=1,74=-55/1,2,3;
 4//1;
 5/5=2,38=5/2;
 6/7=2,8=2,9=2,10=2,28=1/1;
 7//1,2,3,16;
 1/5=1,6=200,11=1,18=20,26=3/3(2);
 2/9=110/2;
 99//99;
 2/9=110/2;
 3/5=4,6=6,7=214,11=2,25=1,30=1,71=1,74=-55/1,2,3;
 4/5=5,16=3,69=1/1;
 5/5=2,38=5/2;
 7//1,2,3,16;
 1/5=1,6=200,11=1,18=20,26=3/3(-5);
 2/9=110/2;
 6/7=2,8=2,9=2,10=2,19=2,28=1/1;
 99/9=1/99;
 -----
 Title
 -----
 Symbolic Z-matrix:
 Charge =  0 Multiplicity = 1
 C                    -9.7105    1.3272    3.32414 
 C                    -9.9271    0.10725   2.69083 
 C                    -8.41794   1.84576   3.41491 
 H                    -10.54676   1.87649   3.74874 
 C                    -8.85179  -0.59605   2.14548 
 H                    -10.93304  -0.29808   2.61958 
 C                    -7.54532  -0.0879    2.22736 
 H                    -9.04201  -1.54686   1.6526 
 C                    -7.32534   1.14961   2.87379 
 H                    -8.2688    2.80084   3.91374 
 C                    -6.01935   1.6635    2.95267 
 C                    -6.45856  -0.77937   1.66998 
 C                    -5.1628   -0.26221   1.74567 
 H                    -6.61514  -1.72705   1.15901 
 C                    -4.90446   0.96053   2.41519 
 H                    -4.34562  -0.81166   1.27935 
 H                    -5.85163   2.63033   3.42861 
 H                    -4.28      0.67672   3.31233 
 C                    -3.83437   1.87624   1.71539 
 H                    -2.93307   1.28847   1.50222 
 H                    -4.24      2.30204   0.77566 
 H                    -3.5524    2.69089   2.39342 
 O                    -4.53516   2.55357  -0.12432 
 O                    -5.81036   3.2572   -0.08826 
 H                    -6.37335   2.46174  -0.02602 
 
 The following ModRedundant input section has been read:
 

 GradGradGradGradGradGradGradGradGradGradGradGradGradGradGradGradGradGrad
 Berny optimization.
 Initialization pass.
                           ----------------------------
                           !    Initial Parameters    !
                           ! (Angstroms and Degrees)  !
 --------------------------                            --------------------------
 ! Name  Definition              Value          Derivative Info.                !
 --------------------------------------------------------------------------------
 ! R1    R(1,2)                  1.3915         estimate D2E/DX2                !
 ! R2    R(1,3)                  1.3957         estimate D2E/DX2                !
 ! R3    R(1,4)                  1.0869         estimate D2E/DX2                !
 ! R4    R(2,5)                  1.3958         estimate D2E/DX2                !
 ! R5    R(2,6)                  1.0869         estimate D2E/DX2                !
 ! R6    R(3,9)                  1.404          estimate D2E/DX2                !
 ! R7    R(3,10)                 1.0878         estimate D2E/DX2                !
 ! R8    R(5,7)                  1.4042         estimate D2E/DX2                !
 ! R9    R(5,8)                  1.0877         estimate D2E/DX2                !
 ! R10   R(7,9)                  1.4134         estimate D2E/DX2                !
 ! R11   R(7,12)                 1.4035         estimate D2E/DX2                !
 ! R12   R(9,11)                 1.4057         estimate D2E/DX2                !
 ! R13   R(11,15)                1.4234         estimate D2E/DX2                !
 ! R14   R(11,17)                1.0906         estimate D2E/DX2                !
 ! R15   R(12,13)                1.3972         estimate D2E/DX2                !
 ! R16   R(12,14)                1.088          estimate D2E/DX2                !
 ! R17   R(13,15)                1.4178         estimate D2E/DX2                !
 ! R18   R(13,16)                1.0896         estimate D2E/DX2                !
 ! R19   R(15,18)                1.1293         estimate D2E/DX2                !
 ! R20   R(15,19)                1.5727         estimate D2E/DX2                !
 ! R21   R(19,20)                1.0969         estimate D2E/DX2                !
 ! R22   R(19,21)                1.1086         estimate D2E/DX2                !
 ! R23   R(19,22)                1.0968         estimate D2E/DX2                !
 ! R24   R(21,23)                0.98           estimate D2E/DX2                !
 ! R25   R(23,24)                1.4569         estimate D2E/DX2                !
 ! R26   R(24,25)                0.9765         estimate D2E/DX2                !
 ! A1    A(2,1,3)              119.9674         estimate D2E/DX2                !
 ! A2    A(2,1,4)              120.0731         estimate D2E/DX2                !
 ! A3    A(3,1,4)              119.9595         estimate D2E/DX2                !
 ! A4    A(1,2,5)              119.9764         estimate D2E/DX2                !
 ! A5    A(1,2,6)              120.057          estimate D2E/DX2                !
 ! A6    A(5,2,6)              119.9665         estimate D2E/DX2                !
 ! A7    A(1,3,9)              120.7589         estimate D2E/DX2                !
 ! A8    A(1,3,10)             118.8836         estimate D2E/DX2                !
 ! A9    A(9,3,10)             120.3576         estimate D2E/DX2                !
 ! A10   A(2,5,7)              120.7731         estimate D2E/DX2                !
 ! A11   A(2,5,8)              118.8652         estimate D2E/DX2                !
 ! A12   A(7,5,8)              120.3616         estimate D2E/DX2                !
 ! A13   A(5,7,9)              119.2302         estimate D2E/DX2                !
 ! A14   A(5,7,12)             121.2637         estimate D2E/DX2                !
 ! A15   A(9,7,12)             119.5037         estimate D2E/DX2                !
 ! A16   A(3,9,7)              119.2935         estimate D2E/DX2                !
 ! A17   A(3,9,11)             121.3406         estimate D2E/DX2                !
 ! A18   A(7,9,11)             119.364          estimate D2E/DX2                !
 ! A19   A(9,11,15)            121.7342         estimate D2E/DX2                !
 ! A20   A(9,11,17)            119.4368         estimate D2E/DX2                !
 ! A21   A(15,11,17)           118.8262         estimate D2E/DX2                !
 ! A22   A(7,12,13)            120.9456         estimate D2E/DX2                !
 ! A23   A(7,12,14)            120.2791         estimate D2E/DX2                !
 ! A24   A(13,12,14)           118.7715         estimate D2E/DX2                !
 ! A25   A(12,13,15)           120.9165         estimate D2E/DX2                !
 ! A26   A(12,13,16)           119.0593         estimate D2E/DX2                !
 ! A27   A(15,13,16)           120.024          estimate D2E/DX2                !
 ! A28   A(11,15,13)           117.4857         estimate D2E/DX2                !
 ! A29   A(11,15,18)           104.907          estimate D2E/DX2                !
 ! A30   A(11,15,19)           114.4195         estimate D2E/DX2                !
 ! A31   A(13,15,18)           105.0204         estimate D2E/DX2                !
 ! A32   A(13,15,19)           114.5832         estimate D2E/DX2                !
 ! A33   A(18,15,19)            97.0985         estimate D2E/DX2                !
 ! A34   A(15,19,20)           109.4846         estimate D2E/DX2                !
 ! A35   A(15,19,21)           110.6021         estimate D2E/DX2                !
 ! A36   A(15,19,22)           109.4105         estimate D2E/DX2                !
 ! A37   A(20,19,21)           109.9819         estimate D2E/DX2                !
 ! A38   A(20,19,22)           107.8725         estimate D2E/DX2                !
 ! A39   A(21,19,22)           109.4404         estimate D2E/DX2                !
 ! A40   A(21,23,24)           111.3991         estimate D2E/DX2                !
 ! A41   A(23,24,25)            96.476          estimate D2E/DX2                !
 ! A42   L(19,21,23,1,-1)      183.8709         estimate D2E/DX2                !
 ! A43   L(19,21,23,1,-2)      188.3481         estimate D2E/DX2                !
 ! D1    D(3,1,2,5)             -0.0769         estimate D2E/DX2                !
 ! D2    D(3,1,2,6)            179.9814         estimate D2E/DX2                !
 ! D3    D(4,1,2,5)            179.9581         estimate D2E/DX2                !
 ! D4    D(4,1,2,6)              0.0163         estimate D2E/DX2                !
 ! D5    D(2,1,3,9)             -0.0428         estimate D2E/DX2                !
 ! D6    D(2,1,3,10)           179.9992         estimate D2E/DX2                !
 ! D7    D(4,1,3,9)            179.9223         estimate D2E/DX2                !
 ! D8    D(4,1,3,10)            -0.0358         estimate D2E/DX2                !
 ! D9    D(1,2,5,7)              0.0308         estimate D2E/DX2                !
 ! D10   D(1,2,5,8)           -179.869          estimate D2E/DX2                !
 ! D11   D(6,2,5,7)            179.9726         estimate D2E/DX2                !
 ! D12   D(6,2,5,8)              0.0728         estimate D2E/DX2                !
 ! D13   D(1,3,9,7)              0.2061         estimate D2E/DX2                !
 ! D14   D(1,3,9,11)           179.6943         estimate D2E/DX2                !
 ! D15   D(10,3,9,7)          -179.8365         estimate D2E/DX2                !
 ! D16   D(10,3,9,11)           -0.3483         estimate D2E/DX2                !
 ! D17   D(2,5,7,9)              0.1329         estimate D2E/DX2                !
 ! D18   D(2,5,7,12)          -179.3028         estimate D2E/DX2                !
 ! D19   D(8,5,7,9)           -179.9688         estimate D2E/DX2                !
 ! D20   D(8,5,7,12)             0.5955         estimate D2E/DX2                !
 ! D21   D(5,7,9,3)             -0.2486         estimate D2E/DX2                !
 ! D22   D(5,7,9,11)          -179.747          estimate D2E/DX2                !
 ! D23   D(12,7,9,3)           179.1972         estimate D2E/DX2                !
 ! D24   D(12,7,9,11)           -0.3013         estimate D2E/DX2                !
 ! D25   D(5,7,12,13)          179.4664         estimate D2E/DX2                !
 ! D26   D(5,7,12,14)            0.175          estimate D2E/DX2                !
 ! D27   D(9,7,12,13)            0.0322         estimate D2E/DX2                !
 ! D28   D(9,7,12,14)         -179.2592         estimate D2E/DX2                !
 ! D29   D(3,9,11,15)          179.5582         estimate D2E/DX2                !
 ! D30   D(3,9,11,17)           -1.0456         estimate D2E/DX2                !
 ! D31   D(7,9,11,15)           -0.954          estimate D2E/DX2                !
 ! D32   D(7,9,11,17)          178.4422         estimate D2E/DX2                !
 ! D33   D(9,11,15,13)           2.3956         estimate D2E/DX2                !
 ! D34   D(9,11,15,18)        -113.7598         estimate D2E/DX2                !
 ! D35   D(9,11,15,19)         141.0923         estimate D2E/DX2                !
 ! D36   D(17,11,15,13)       -177.0042         estimate D2E/DX2                !
 ! D37   D(17,11,15,18)         66.8404         estimate D2E/DX2                !
 ! D38   D(17,11,15,19)        -38.3074         estimate D2E/DX2                !
 ! D39   D(7,12,13,15)           1.4967         estimate D2E/DX2                !
 ! D40   D(7,12,13,16)        -178.3871         estimate D2E/DX2                !
 ! D41   D(14,12,13,15)       -179.2014         estimate D2E/DX2                !
 ! D42   D(14,12,13,16)          0.9148         estimate D2E/DX2                !
 ! D43   D(12,13,15,11)         -2.6493         estimate D2E/DX2                !
 ! D44   D(12,13,15,18)        113.4443         estimate D2E/DX2                !
 ! D45   D(12,13,15,19)       -141.2805         estimate D2E/DX2                !
 ! D46   D(16,13,15,11)        177.2334         estimate D2E/DX2                !
 ! D47   D(16,13,15,18)        -66.673          estimate D2E/DX2                !
 ! D48   D(16,13,15,19)         38.6022         estimate D2E/DX2                !
 ! D49   D(11,15,19,20)        169.3795         estimate D2E/DX2                !
 ! D50   D(11,15,19,21)        -69.2713         estimate D2E/DX2                !
 ! D51   D(11,15,19,22)         51.356          estimate D2E/DX2                !
 ! D52   D(13,15,19,20)        -50.7043         estimate D2E/DX2                !
 ! D53   D(13,15,19,21)         70.6449         estimate D2E/DX2                !
 ! D54   D(13,15,19,22)       -168.7278         estimate D2E/DX2                !
 ! D55   D(18,15,19,20)         59.4266         estimate D2E/DX2                !
 ! D56   D(18,15,19,21)       -179.2242         estimate D2E/DX2                !
 ! D57   D(18,15,19,22)        -58.5969         estimate D2E/DX2                !
 ! D58   D(15,19,23,24)         55.5812         estimate D2E/DX2                !
 ! D59   D(20,19,23,24)        174.3489         estimate D2E/DX2                !
 ! D60   D(22,19,23,24)        -67.5612         estimate D2E/DX2                !
 ! D61   D(21,23,24,25)        -81.6015         estimate D2E/DX2                !
 --------------------------------------------------------------------------------
 Trust Radius=3.00D-01 FncErr=1.00D-07 GrdErr=1.00D-06 EigMax=2.50D+02 EigMin=1.00D-04
 Number of steps in this run=    150 maximum allowed number of steps=    150.
 Search for a saddle point of order  1.
 GradGradGradGradGradGradGradGradGradGradGradGradGradGradGradGradGradGrad

                          Input orientation:                          
 ---------------------------------------------------------------------
 Center     Atomic      Atomic             Coordinates (Angstroms)
 Number     Number       Type             X           Y           Z
 ---------------------------------------------------------------------
      1          6           0       -9.710500    1.327200    3.324140
      2          6           0       -9.927100    0.107250    2.690830
      3          6           0       -8.417940    1.845760    3.414910
      4          1           0      -10.546760    1.876490    3.748740
      5          6           0       -8.851790   -0.596050    2.145480
      6          1           0      -10.933040   -0.298080    2.619580
      7          6           0       -7.545320   -0.087900    2.227360
      8          1           0       -9.042010   -1.546860    1.652600
      9          6           0       -7.325340    1.149610    2.873790
     10          1           0       -8.268800    2.800840    3.913740
     11          6           0       -6.019350    1.663500    2.952670
     12          6           0       -6.458560   -0.779370    1.669980
     13          6           0       -5.162800   -0.262210    1.745670
     14          1           0       -6.615140   -1.727050    1.159010
     15          6           0       -4.904460    0.960530    2.415190
     16          1           0       -4.345620   -0.811660    1.279350
     17          1           0       -5.851630    2.630330    3.428610
     18          1           0       -4.280000    0.676720    3.312330
     19          6           0       -3.834370    1.876240    1.715390
     20          1           0       -2.933070    1.288470    1.502220
     21          1           0       -4.240000    2.302040    0.775660
     22          1           0       -3.552400    2.690890    2.393420
     23          8           0       -4.535160    2.553570   -0.124320
     24          8           0       -5.810360    3.257200   -0.088260
     25          1           0       -6.373350    2.461740   -0.026020
 ---------------------------------------------------------------------
                    Distance matrix (angstroms):
                    1          2          3          4          5
     1  C    0.000000
     2  C    1.391501   0.000000
     3  C    1.395656   2.413353   0.000000
     4  H    1.086893   2.152525   2.155055   0.000000
     5  C    2.413610   1.395826   2.786057   3.399532   0.000000
     6  H    2.152335   1.086869   3.399166   2.480518   2.155263
     7  C    2.809526   2.434289   2.431210   3.896417   1.404202
     8  H    3.391334   2.144152   3.873638   4.286887   1.087729
     9  C    2.433792   2.808762   1.403998   3.416349   2.430599
    10  H    2.144235   3.391297   1.087774   2.463889   3.873691
    11  C    3.725007   4.214378   2.449514   4.601797   3.712120
    12  C    4.212956   3.722768   3.711503   5.299832   2.446887
    13  C    5.069454   4.871179   4.222065   6.129711   3.725580
    14  H    4.857724   4.084141   4.593925   5.928730   2.693490
    15  C    4.904963   5.102056   3.758672   5.869658   4.251717
    16  H    6.126812   5.830059   5.310959   7.195705   4.593717
    17  H    4.074302   4.849712   2.683595   4.766026   4.588781
    18  H    5.469332   5.709667   4.301131   6.395481   4.886998
    19  C    6.117060   6.418891   4.888600   7.013608   5.609964
    20  H    7.018151   7.191977   5.835474   7.959956   6.244713
    21  H    6.113218   6.389686   4.962763   6.985379   5.616399
    22  H    6.375585   6.884798   5.042932   7.170858   6.240912
    23  O    6.338770   6.556109   5.301238   7.183200   5.805635
    24  O    5.529961   5.881588   4.589536   6.249993   5.393276
    25  H    4.862851   5.055100   4.049664   5.657622   4.495348
                    6          7          8          9         10
     6  H    0.000000
     7  C    3.416820   0.000000
     8  H    2.463838   2.167716   0.000000
     9  C    3.895629   1.413398   3.421872   0.000000
    10  H    4.286762   3.422297   4.961159   2.167527   0.000000
    11  C    5.301235   2.433529   4.597072   1.405672   2.697633
    12  C    4.599386   1.403514   2.695099   2.433399   4.596665
    13  C    5.836152   2.436968   4.087451   2.818239   4.871349
    14  H    4.776974   2.166430   2.483102   3.423453   5.552019
    15  C    6.161952   2.847565   4.897741   2.471179   4.117181
    16  H    6.741964   3.414767   4.768219   3.907371   5.948236
    17  H    5.920375   3.420579   5.548122   2.161522   2.471262
    18  H    6.759666   3.524786   5.511420   3.112883   4.558959
    19  C    7.479060   4.229788   6.232260   3.749234   5.035057
    20  H    8.231959   4.867553   6.736532   4.603534   6.047537
    21  H    7.413329   4.329479   6.216298   3.905069   5.131041
    22  H    7.966112   4.867511   6.974465   4.103825   4.956601
    23  O    7.522883   4.644225   6.346863   4.329535   5.505192
    24  O    6.798107   4.422881   6.045920   3.938380   4.718919
    25  H    5.950343   3.598875   5.099842   3.322178   4.385137
                   11         12         13         14         15
    11  C    0.000000
    12  C    2.793888   0.000000
    13  C    2.428762   1.397203   0.000000
    14  H    3.881754   1.087982   2.144579   0.000000
    15  C    1.423387   2.449044   1.417776   3.424544   0.000000
    16  H    3.424586   2.148988   1.089556   2.450131   2.177864
    17  H    1.090600   3.884224   3.416659   4.972001   2.170802
    18  H    2.031853   3.092513   2.028632   3.983438   1.129318
    19  C    2.519972   3.733725   2.517660   4.585405   1.572685
    20  H    3.430682   4.090622   2.726825   4.771666   2.197143
    21  H    2.883261   3.900885   2.892725   4.692741   2.220184
    22  H    2.730226   4.583867   3.425459   5.515645   2.196061
    23  O    3.530285   4.245877   3.437937   4.929195   3.020475
    24  O    3.439595   4.450334   4.021055   5.200587   3.516050
    25  H    3.104045   3.659026   3.467596   4.359899   3.220369
                   16         17         18         19         20
    16  H    0.000000
    17  H    4.328358   0.000000
    18  H    2.520434   2.510007   0.000000
    19  C    2.770616   2.751929   2.046375   0.000000
    20  H    2.540770   3.745605   2.337725   1.096931   0.000000
    21  H    3.155945   3.121421   3.012965   1.108573   1.806455
    22  H    3.760081   2.522250   2.330382   1.096762   1.773299
    23  O    3.651163   3.789762   3.924059   2.081926   2.610135
    24  O    4.535575   3.572540   4.534853   3.010771   3.832013
    25  H    4.065812   3.497868   4.325852   3.133965   3.943045
                   21         22         23         24         25
    21  H    0.000000
    22  H    1.800318   0.000000
    23  O    0.979975   2.706231   0.000000
    24  O    2.030940   3.402620   1.456891   0.000000
    25  H    2.284596   3.723434   1.843106   0.976518   0.000000
 Stoichiometry    C11H12O2
 Framework group  C1[X(C11H12O2)]
 Deg. of freedom    69
 Full point group                 C1      NOp   1
 Largest Abelian subgroup         C1      NOp   1
 Largest concise Abelian subgroup C1      NOp   1
                         Standard orientation:                         
 ---------------------------------------------------------------------
 Center     Atomic      Atomic             Coordinates (Angstroms)
 Number     Number       Type             X           Y           Z
 ---------------------------------------------------------------------
      1          6           0        3.071789   -1.199642    0.309902
      2          6           0        3.403765   -0.172522   -0.568216
      3          6           0        1.809147   -1.228215    0.903851
      4          1           0        3.794922   -1.979443    0.534233
      5          6           0        2.473230    0.827415   -0.855551
      6          1           0        4.386735   -0.148677   -1.031340
      7          6           0        1.198283    0.812893   -0.267262
      8          1           0        2.751066    1.620512   -1.546173
      9          6           0        0.862756   -0.228678    0.627303
     10          1           0        1.568332   -2.039277    1.587546
     11          6           0       -0.414610   -0.248917    1.213683
     12          6           0        0.249687    1.805034   -0.559960
     13          6           0       -1.020832    1.777976    0.020750
     14          1           0        0.490377    2.605846   -1.256001
     15          6           0       -1.377216    0.764995    0.946466
     16          1           0       -1.742308    2.548751   -0.248530
     17          1           0       -0.683691   -1.065868    1.884201
     18          1           0       -1.513794    1.302452    1.930257
     19          6           0       -2.852842    0.239638    0.805523
     20          1           0       -3.544538    1.090886    0.791717
     21          1           0       -2.967643   -0.356845   -0.121819
     22          1           0       -3.102541   -0.382928    1.673249
     23          8           0       -3.112087   -0.749407   -1.008037
     24          8           0       -2.191086   -1.850144   -1.258364
     25          1           0       -1.430473   -1.298851   -1.525068
 ---------------------------------------------------------------------
 Rotational constants (GHZ):           1.3911742           0.5191968           0.4702595
 Standard basis: 6-311+G(2df,2p) (5D, 7F)
 There are   615 symmetry adapted cartesian basis functions of A   symmetry.
 There are   550 symmetry adapted basis functions of A   symmetry.
   550 basis functions,   808 primitive gaussians,   615 cartesian basis functions
    47 alpha electrons       47 beta electrons
       nuclear repulsion energy       758.6127348654 Hartrees.
 NAtoms=   25 NActive=   25 NUniq=   25 SFac= 1.00D+00 NAtFMM=   60 NAOKFM=F Big=F
 Integral buffers will be    131072 words long.
 Raffenetti 2 integral format.
 Two-electron integral symmetry is turned on.
 One-electron integrals computed using PRISM.
 NBasis=   550 RedAO= T EigKep=  2.10D-06  NBF=   550
 NBsUse=   548 1.00D-06 EigRej=  6.04D-07 NBFU=   548
 ExpMin= 4.38D-02 ExpMax= 8.59D+03 ExpMxC= 1.30D+03 IAcc=3 IRadAn=         5 AccDes= 0.00D+00
 Harris functional with IExCor= 1009 and IRadAn=       5 diagonalized for initial guess.
 HarFok:  IExCor= 1009 AccDes= 0.00D+00 IRadAn=         5 IDoV= 1 UseB2=F ITyADJ=14
 ICtDFT=  3500011 ScaDFX=  1.000000  1.000000  1.000000  1.000000
 FoFCou: FMM=F IPFlag=           0 FMFlag=      100000 FMFlg1=           0
         NFxFlg=           0 DoJE=T BraDBF=F KetDBF=T FulRan=T
         wScrn=  0.000000 ICntrl=       500 IOpCl=  0 I1Cent=   200000004 NGrid=           0
         NMat0=    1 NMatS0=      1 NMatT0=    0 NMatD0=    1 NMtDS0=    0 NMtDT0=    0
 Petite list used in FoFCou.
 Requested convergence on RMS density matrix=1.00D-08 within 128 cycles.
 Requested convergence on MAX density matrix=1.00D-06.
 Requested convergence on             energy=1.00D-06.
 No special actions if energy rises.
 SCF Done:  E(RM062X) =  -576.464041863     A.U. after   20 cycles
            NFock= 20  Conv=0.25D-08     -V/T= 2.0029

 **********************************************************************

            Population analysis using the SCF density.

 **********************************************************************

 Orbital symmetries:
       Occupied  (A) (A) (A) (A) (A) (A) (A) (A) (A) (A) (A) (A)
                 (A) (A) (A) (A) (A) (A) (A) (A) (A) (A) (A) (A)
                 (A) (A) (A) (A) (A) (A) (A) (A) (A) (A) (A) (A)
                 (A) (A) (A) (A) (A) (A) (A) (A) (A) (A) (A)
       Virtual   (A) (A) (A) (A) (A) (A) (A) (A) (A) (A) (A) (A)
                 (A) (A) (A) (A) (A) (A) (A) (A) (A) (A) (A) (A)
                 (A) (A) (A) (A) (A) (A) (A) (A) (A) (A) (A) (A)
                 (A) (A) (A) (A) (A) (A) (A) (A) (A) (A) (A) (A)
                 (A) (A) (A) (A) (A) (A) (A) (A) (A) (A) (A) (A)
                 (A) (A) (A) (A) (A) (A) (A) (A) (A) (A) (A) (A)
                 (A) (A) (A) (A) (A) (A) (A) (A) (A) (A) (A) (A)
                 (A) (A) (A) (A) (A) (A) (A) (A) (A) (A) (A) (A)
                 (A) (A) (A) (A) (A) (A) (A) (A) (A) (A) (A) (A)
                 (A) (A) (A) (A) (A) (A) (A) (A) (A) (A) (A) (A)
                 (A) (A) (A) (A) (A) (A) (A) (A) (A) (A) (A) (A)
                 (A) (A) (A) (A) (A) (A) (A) (A) (A) (A) (A) (A)
                 (A) (A) (A) (A) (A) (A) (A) (A) (A) (A) (A) (A)
                 (A) (A) (A) (A) (A) (A) (A) (A) (A) (A) (A) (A)
                 (A) (A) (A) (A) (A) (A) (A) (A) (A) (A) (A) (A)
                 (A) (A) (A) (A) (A) (A) (A) (A) (A) (A) (A) (A)
                 (A) (A) (A) (A) (A) (A) (A) (A) (A) (A) (A) (A)
                 (A) (A) (A) (A) (A) (A) (A) (A) (A) (A) (A) (A)
                 (A) (A) (A) (A) (A) (A) (A) (A) (A) (A) (A) (A)
                 (A) (A) (A) (A) (A) (A) (A) (A) (A) (A) (A) (A)
                 (A) (A) (A) (A) (A) (A) (A) (A) (A) (A) (A) (A)
                 (A) (A) (A) (A) (A) (A) (A) (A) (A) (A) (A) (A)
                 (A) (A) (A) (A) (A) (A) (A) (A) (A) (A) (A) (A)
                 (A) (A) (A) (A) (A) (A) (A) (A) (A) (A) (A) (A)
                 (A) (A) (A) (A) (A) (A) (A) (A) (A) (A) (A) (A)
                 (A) (A) (A) (A) (A) (A) (A) (A) (A) (A) (A) (A)
                 (A) (A) (A) (A) (A) (A) (A) (A) (A) (A) (A) (A)
                 (A) (A) (A) (A) (A) (A) (A) (A) (A) (A) (A) (A)
                 (A) (A) (A) (A) (A) (A) (A) (A) (A) (A) (A) (A)
                 (A) (A) (A) (A) (A) (A) (A) (A) (A) (A) (A) (A)
                 (A) (A) (A) (A) (A) (A) (A) (A) (A) (A) (A) (A)
                 (A) (A) (A) (A) (A) (A) (A) (A) (A) (A) (A) (A)
                 (A) (A) (A) (A) (A) (A) (A) (A) (A) (A) (A) (A)
                 (A) (A) (A) (A) (A) (A) (A) (A) (A) (A) (A) (A)
                 (A) (A) (A) (A) (A) (A) (A) (A) (A) (A) (A) (A)
                 (A) (A) (A) (A) (A) (A) (A) (A) (A) (A) (A) (A)
                 (A) (A) (A) (A) (A) (A) (A) (A) (A) (A) (A) (A)
                 (A) (A) (A) (A) (A) (A) (A) (A) (A) (A) (A) (A)
                 (A) (A) (A) (A) (A) (A) (A) (A) (A) (A) (A) (A)
                 (A) (A) (A) (A) (A) (A) (A) (A) (A) (A) (A) (A)
                 (A) (A) (A) (A) (A) (A) (A) (A) (A) (A) (A) (A)
                 (A) (A) (A) (A) (A) (A) (A) (A) (A)
 The electronic state is 1-A.
 Alpha  occ. eigenvalues --  -19.65117 -19.61360 -10.58302 -10.57911 -10.57529
 Alpha  occ. eigenvalues --  -10.57441 -10.57286 -10.56946 -10.56728 -10.56636
 Alpha  occ. eigenvalues --  -10.56561 -10.56417 -10.52739  -1.20174  -1.01394
 Alpha  occ. eigenvalues --   -0.98766  -0.95752  -0.90131  -0.88161  -0.83720
 Alpha  occ. eigenvalues --   -0.78246  -0.73483  -0.70951  -0.70645  -0.61956
 Alpha  occ. eigenvalues --   -0.61331  -0.59889  -0.57540  -0.54467  -0.53826
 Alpha  occ. eigenvalues --   -0.52965  -0.52625  -0.50700  -0.50071  -0.47671
 Alpha  occ. eigenvalues --   -0.47206  -0.47011  -0.45152  -0.44240  -0.41536
 Alpha  occ. eigenvalues --   -0.40990  -0.38513  -0.37575  -0.35190  -0.33588
 Alpha  occ. eigenvalues --   -0.29653  -0.20921
 Alpha virt. eigenvalues --   -0.09930  -0.03264   0.00006   0.00955   0.01018
 Alpha virt. eigenvalues --    0.01377   0.02872   0.03128   0.03931   0.04557
 Alpha virt. eigenvalues --    0.05198   0.05472   0.05667   0.06427   0.06773
 Alpha virt. eigenvalues --    0.08506   0.08883   0.09195   0.09375   0.09975
 Alpha virt. eigenvalues --    0.10327   0.11799   0.11862   0.12293   0.12949
 Alpha virt. eigenvalues --    0.13282   0.13634   0.14025   0.15581   0.16482
 Alpha virt. eigenvalues --    0.16775   0.16841   0.17271   0.17819   0.18021
 Alpha virt. eigenvalues --    0.18260   0.18726   0.19241   0.19392   0.20004
 Alpha virt. eigenvalues --    0.20138   0.21011   0.21211   0.21833   0.22060
 Alpha virt. eigenvalues --    0.22596   0.23015   0.23211   0.23772   0.24127
 Alpha virt. eigenvalues --    0.24841   0.25276   0.25519   0.25753   0.26381
 Alpha virt. eigenvalues --    0.26886   0.27387   0.27545   0.27946   0.28690
 Alpha virt. eigenvalues --    0.29209   0.29772   0.30124   0.31241   0.32540
 Alpha virt. eigenvalues --    0.33276   0.33958   0.34329   0.34445   0.35539
 Alpha virt. eigenvalues --    0.36714   0.37854   0.39587   0.41601   0.43180
 Alpha virt. eigenvalues --    0.44867   0.45488   0.47638   0.47775   0.48886
 Alpha virt. eigenvalues --    0.49601   0.50588   0.51231   0.51742   0.52389
 Alpha virt. eigenvalues --    0.53214   0.53602   0.54289   0.55022   0.55210
 Alpha virt. eigenvalues --    0.55517   0.56323   0.56880   0.57343   0.58185
 Alpha virt. eigenvalues --    0.59049   0.59273   0.60794   0.61148   0.62511
 Alpha virt. eigenvalues --    0.63107   0.63800   0.64203   0.64743   0.65349
 Alpha virt. eigenvalues --    0.65617   0.66238   0.66671   0.67274   0.67700
 Alpha virt. eigenvalues --    0.68143   0.68747   0.69554   0.69867   0.70444
 Alpha virt. eigenvalues --    0.71273   0.72144   0.72521   0.72983   0.74354
 Alpha virt. eigenvalues --    0.74962   0.75263   0.75899   0.76965   0.78204
 Alpha virt. eigenvalues --    0.79275   0.80031   0.81243   0.82098   0.82254
 Alpha virt. eigenvalues --    0.83355   0.84258   0.85611   0.86173   0.86629
 Alpha virt. eigenvalues --    0.88718   0.89418   0.89708   0.90592   0.91399
 Alpha virt. eigenvalues --    0.93333   0.95460   0.96141   0.96855   0.98555
 Alpha virt. eigenvalues --    0.99077   0.99352   1.01677   1.02349   1.02436
 Alpha virt. eigenvalues --    1.03410   1.05105   1.05336   1.07321   1.08249
 Alpha virt. eigenvalues --    1.09033   1.09814   1.10366   1.10915   1.12090
 Alpha virt. eigenvalues --    1.13995   1.15036   1.15702   1.18192   1.18411
 Alpha virt. eigenvalues --    1.18665   1.19708   1.21101   1.21488   1.22828
 Alpha virt. eigenvalues --    1.23685   1.24616   1.25636   1.26140   1.27474
 Alpha virt. eigenvalues --    1.27786   1.29076   1.29722   1.30436   1.30806
 Alpha virt. eigenvalues --    1.31594   1.33070   1.33197   1.33993   1.34356
 Alpha virt. eigenvalues --    1.35488   1.36113   1.36966   1.37420   1.37878
 Alpha virt. eigenvalues --    1.39407   1.40267   1.42112   1.42504   1.43075
 Alpha virt. eigenvalues --    1.43490   1.44303   1.45613   1.46563   1.47582
 Alpha virt. eigenvalues --    1.48330   1.48908   1.49728   1.50581   1.52570
 Alpha virt. eigenvalues --    1.56266   1.57825   1.60325   1.61406   1.62673
 Alpha virt. eigenvalues --    1.63681   1.64469   1.66732   1.67597   1.69019
 Alpha virt. eigenvalues --    1.69433   1.71052   1.72874   1.73984   1.74762
 Alpha virt. eigenvalues --    1.74929   1.76768   1.78671   1.79347   1.80425
 Alpha virt. eigenvalues --    1.85622   1.87421   1.91228   1.92011   1.93454
 Alpha virt. eigenvalues --    1.95923   1.98311   2.01332   2.03031   2.04225
 Alpha virt. eigenvalues --    2.09827   2.15830   2.21169   2.28828   2.31308
 Alpha virt. eigenvalues --    2.35951   2.38190   2.38896   2.46832   2.47109
 Alpha virt. eigenvalues --    2.50198   2.52761   2.53595   2.56635   2.59873
 Alpha virt. eigenvalues --    2.61623   2.62927   2.63992   2.65018   2.65738
 Alpha virt. eigenvalues --    2.67971   2.68378   2.70273   2.72057   2.73669
 Alpha virt. eigenvalues --    2.73815   2.74834   2.75138   2.75710   2.76489
 Alpha virt. eigenvalues --    2.78375   2.79065   2.79563   2.80681   2.81252
 Alpha virt. eigenvalues --    2.82263   2.82819   2.83583   2.83943   2.84561
 Alpha virt. eigenvalues --    2.85728   2.86643   2.86937   2.87127   2.87325
 Alpha virt. eigenvalues --    2.88054   2.89313   2.90658   2.91151   2.91620
 Alpha virt. eigenvalues --    2.94248   2.97030   2.98440   3.00615   3.01555
 Alpha virt. eigenvalues --    3.05387   3.06182   3.08090   3.08848   3.09297
 Alpha virt. eigenvalues --    3.10515   3.12287   3.12709   3.13169   3.14677
 Alpha virt. eigenvalues --    3.15277   3.15952   3.17340   3.18059   3.18430
 Alpha virt. eigenvalues --    3.19551   3.19859   3.20026   3.20808   3.21546
 Alpha virt. eigenvalues --    3.22913   3.23923   3.25550   3.26123   3.27200
 Alpha virt. eigenvalues --    3.29326   3.30411   3.32361   3.33188   3.33487
 Alpha virt. eigenvalues --    3.34796   3.35033   3.37476   3.38027   3.39686
 Alpha virt. eigenvalues --    3.40181   3.40825   3.43240   3.44246   3.44744
 Alpha virt. eigenvalues --    3.45090   3.45949   3.47096   3.47465   3.49648
 Alpha virt. eigenvalues --    3.50707   3.51305   3.53326   3.54043   3.54971
 Alpha virt. eigenvalues --    3.55674   3.58172   3.59054   3.61727   3.62669
 Alpha virt. eigenvalues --    3.63718   3.64807   3.65981   3.66916   3.68645
 Alpha virt. eigenvalues --    3.71951   3.72410   3.72745   3.73163   3.75028
 Alpha virt. eigenvalues --    3.76067   3.77041   3.78128   3.78558   3.79700
 Alpha virt. eigenvalues --    3.80741   3.82379   3.84533   3.85165   3.87205
 Alpha virt. eigenvalues --    3.88053   3.89706   3.90848   3.91609   3.92208
 Alpha virt. eigenvalues --    3.93864   3.94445   3.95743   3.96474   4.00756
 Alpha virt. eigenvalues --    4.01370   4.01946   4.02908   4.06618   4.07224
 Alpha virt. eigenvalues --    4.08213   4.11462   4.12265   4.12565   4.13534
 Alpha virt. eigenvalues --    4.14278   4.15847   4.17779   4.18412   4.19613
 Alpha virt. eigenvalues --    4.22121   4.23475   4.23869   4.26302   4.28390
 Alpha virt. eigenvalues --    4.28686   4.29902   4.30050   4.33410   4.34003
 Alpha virt. eigenvalues --    4.35128   4.35871   4.37596   4.38626   4.39469
 Alpha virt. eigenvalues --    4.40426   4.40705   4.42346   4.43947   4.45695
 Alpha virt. eigenvalues --    4.46214   4.46816   4.48812   4.49338   4.52151
 Alpha virt. eigenvalues --    4.52979   4.53413   4.55119   4.57768   4.57968
 Alpha virt. eigenvalues --    4.60279   4.61380   4.63159   4.65883   4.66827
 Alpha virt. eigenvalues --    4.69770   4.72914   4.73494   4.75901   4.77472
 Alpha virt. eigenvalues --    4.82197   4.84350   4.87465   4.88041   4.91130
 Alpha virt. eigenvalues --    4.92613   4.95514   5.01517   5.01955   5.08662
 Alpha virt. eigenvalues --    5.09697   5.13748   5.16660   5.18507   5.19065
 Alpha virt. eigenvalues --    5.22813   5.25140   5.25883   5.28257   5.30915
 Alpha virt. eigenvalues --    5.34074   5.36510   5.38194   5.40291   5.46294
 Alpha virt. eigenvalues --    5.49343   5.52063   5.53253   5.53626   5.56935
 Alpha virt. eigenvalues --    5.63936   5.65981   5.69232   5.70445   5.73485
 Alpha virt. eigenvalues --    5.80195   5.82387   5.84795   5.87594   5.91310
 Alpha virt. eigenvalues --    5.94105   6.09922   6.15831   6.35217   6.49582
 Alpha virt. eigenvalues --    6.69354   6.89995   6.93333   6.98733   7.10853
 Alpha virt. eigenvalues --    7.21651   7.30377   7.33704   7.41352   7.56988
 Alpha virt. eigenvalues --    7.72472   7.77808   8.05366  23.92484  24.22584
 Alpha virt. eigenvalues --   24.49082  24.54353  24.58799  24.59748  24.62131
 Alpha virt. eigenvalues --   24.72820  24.80357  25.01335  25.20598  50.04525
 Alpha virt. eigenvalues --   50.16832
          Condensed to atoms (all electrons):
               1          2          3          4          5          6
     1  C    6.272814   0.041118   0.569909   0.347616  -0.030524   0.012166
     2  C    0.041118   6.388837  -0.477822   0.023764  -0.107228   0.361671
     3  C    0.569909  -0.477822   6.838268  -0.038853   1.035756   0.012445
     4  H    0.347616   0.023764  -0.038853   0.478689   0.007639  -0.006444
     5  C   -0.030524  -0.107228   1.035756   0.007639   7.932359  -0.028796
     6  H    0.012166   0.361671   0.012445  -0.006444  -0.028796   0.477447
     7  C   -0.151339   0.454474  -0.663806  -0.020151  -3.391084   0.031479
     8  H   -0.000709   0.016499  -0.008166  -0.000098   0.403274  -0.006355
     9  C   -0.078534   0.218269  -2.068892   0.048467  -1.412809  -0.020088
    10  H    0.032657  -0.002673   0.419899  -0.006367  -0.002142  -0.000095
    11  C   -0.702361   0.268711   0.152780   0.008561   0.542278   0.003402
    12  C    0.259181  -0.697346   0.757857   0.001861   1.743515   0.007937
    13  C    0.226976  -0.371621  -0.009720  -0.001570  -0.570150  -0.000009
    14  H    0.000334   0.010490   0.002619  -0.000002   0.031591  -0.000012
    15  C   -0.432909   0.198086  -0.383092   0.001763  -0.043301  -0.000224
    16  H   -0.000698   0.001033   0.003008   0.000000   0.012033  -0.000001
    17  H    0.019773   0.000389   0.062209  -0.000019   0.004860  -0.000003
    18  H   -0.000129   0.000052  -0.005830  -0.000001  -0.004527   0.000000
    19  C   -0.009279  -0.007909  -0.075173  -0.000004  -0.033402   0.000009
    20  H    0.000287   0.000079   0.002963   0.000000   0.000230  -0.000000
    21  H    0.000031   0.000434  -0.001880  -0.000000  -0.000370  -0.000000
    22  H    0.000234   0.000232  -0.000838   0.000000  -0.001107  -0.000000
    23  O   -0.002953   0.003014  -0.008724   0.000000  -0.007366  -0.000000
    24  O    0.000926  -0.003337  -0.019274  -0.000001  -0.001922   0.000000
    25  H    0.004102  -0.000349   0.018705  -0.000000   0.010044  -0.000001
               7          8          9         10         11         12
     1  C   -0.151339  -0.000709  -0.078534   0.032657  -0.702361   0.259181
     2  C    0.454474   0.016499   0.218269  -0.002673   0.268711  -0.697346
     3  C   -0.663806  -0.008166  -2.068892   0.419899   0.152780   0.757857
     4  H   -0.020151  -0.000098   0.048467  -0.006367   0.008561   0.001861
     5  C   -3.391084   0.403274  -1.412809  -0.002142   0.542278   1.743515
     6  H    0.031479  -0.006355  -0.020088  -0.000095   0.003402   0.007937
     7  C   16.380364  -0.049155  -3.067606  -0.075759  -0.633501  -3.399616
     8  H   -0.049155   0.477437  -0.063730   0.000034   0.002734   0.051368
     9  C   -3.067606  -0.063730  17.010164  -0.070449  -3.018520  -2.571035
    10  H   -0.075759   0.000034  -0.070449   0.473834   0.051181   0.004893
    11  C   -0.633501   0.002734  -3.018520   0.051181   8.758785   1.598060
    12  C   -3.399616   0.051368  -2.571035   0.004893   1.598060   9.419394
    13  C    0.111477   0.013571   1.639463  -0.000888  -1.604319  -0.564611
    14  H   -0.019482   0.002362  -0.047729   0.000013  -0.020214   0.366995
    15  C    0.295311   0.000992  -1.036282   0.010053   0.672123  -0.725126
    16  H    0.017689  -0.000005  -0.030060  -0.000002   0.030542   0.041850
    17  H   -0.054143   0.000013   0.004741   0.003641   0.388225  -0.011194
    18  H    0.007843  -0.000002  -0.030941  -0.000016  -0.018299   0.002415
    19  C    0.045642  -0.000071   0.053863  -0.000064  -0.411431  -0.038799
    20  H   -0.005558   0.000000  -0.003602   0.000001   0.087902   0.025121
    21  H    0.010623  -0.000001   0.027536  -0.000001   0.027194  -0.006025
    22  H    0.006895   0.000000   0.023208   0.000000  -0.038037  -0.013098
    23  O    0.055040   0.000005  -0.084545   0.000015   0.057163  -0.049308
    24  O   -0.030837   0.000000   0.058262  -0.000038  -0.051338  -0.003293
    25  H   -0.034240  -0.000004   0.042783  -0.000037  -0.005270   0.009262
              13         14         15         16         17         18
     1  C    0.226976   0.000334  -0.432909  -0.000698   0.019773  -0.000129
     2  C   -0.371621   0.010490   0.198086   0.001033   0.000389   0.000052
     3  C   -0.009720   0.002619  -0.383092   0.003008   0.062209  -0.005830
     4  H   -0.001570  -0.000002   0.001763   0.000000  -0.000019  -0.000001
     5  C   -0.570150   0.031591  -0.043301   0.012033   0.004860  -0.004527
     6  H   -0.000009  -0.000012  -0.000224  -0.000001  -0.000003   0.000000
     7  C    0.111477  -0.019482   0.295311   0.017689  -0.054143   0.007843
     8  H    0.013571   0.002362   0.000992  -0.000005   0.000013  -0.000002
     9  C    1.639463  -0.047729  -1.036282  -0.030060   0.004741  -0.030941
    10  H   -0.000888   0.000013   0.010053  -0.000002   0.003641  -0.000016
    11  C   -1.604319  -0.020214   0.672123   0.030542   0.388225  -0.018299
    12  C   -0.564611   0.366995  -0.725126   0.041850  -0.011194   0.002415
    13  C    8.188763   0.029358  -1.098183   0.335833   0.006674  -0.038592
    14  H    0.029358   0.472795   0.011391  -0.006151   0.000030  -0.000294
    15  C   -1.098183   0.011391   8.559825  -0.024296  -0.047098   0.446717
    16  H    0.335833  -0.006151  -0.024296   0.455716  -0.000023  -0.003245
    17  H    0.006674   0.000030  -0.047098  -0.000023   0.453579  -0.004017
    18  H   -0.038592  -0.000294   0.446717  -0.003245  -0.004017   0.426875
    19  C    0.029080   0.000920  -0.305730  -0.009352  -0.010765  -0.047488
    20  H   -0.073150  -0.000022  -0.012367   0.002763   0.000357  -0.002997
    21  H    0.045269  -0.000039  -0.055963  -0.000491   0.000904   0.004296
    22  H    0.045895   0.000006  -0.016975   0.000094   0.001910  -0.003295
    23  O    0.013426  -0.000003   0.218371  -0.001574  -0.000319   0.003305
    24  O   -0.020552  -0.000023   0.022512  -0.000050  -0.003260  -0.001336
    25  H   -0.002273   0.000011  -0.013764   0.000176   0.000639   0.000198
              19         20         21         22         23         24
     1  C   -0.009279   0.000287   0.000031   0.000234  -0.002953   0.000926
     2  C   -0.007909   0.000079   0.000434   0.000232   0.003014  -0.003337
     3  C   -0.075173   0.002963  -0.001880  -0.000838  -0.008724  -0.019274
     4  H   -0.000004   0.000000  -0.000000   0.000000   0.000000  -0.000001
     5  C   -0.033402   0.000230  -0.000370  -0.001107  -0.007366  -0.001922
     6  H    0.000009  -0.000000  -0.000000  -0.000000  -0.000000   0.000000
     7  C    0.045642  -0.005558   0.010623   0.006895   0.055040  -0.030837
     8  H   -0.000071   0.000000  -0.000001   0.000000   0.000005   0.000000
     9  C    0.053863  -0.003602   0.027536   0.023208  -0.084545   0.058262
    10  H   -0.000064   0.000001  -0.000001   0.000000   0.000015  -0.000038
    11  C   -0.411431   0.087902   0.027194  -0.038037   0.057163  -0.051338
    12  C   -0.038799   0.025121  -0.006025  -0.013098  -0.049308  -0.003293
    13  C    0.029080  -0.073150   0.045269   0.045895   0.013426  -0.020552
    14  H    0.000920  -0.000022  -0.000039   0.000006  -0.000003  -0.000023
    15  C   -0.305730  -0.012367  -0.055963  -0.016975   0.218371   0.022512
    16  H   -0.009352   0.002763  -0.000491   0.000094  -0.001574  -0.000050
    17  H   -0.010765   0.000357   0.000904   0.001910  -0.000319  -0.003260
    18  H   -0.047488  -0.002997   0.004296  -0.003295   0.003305  -0.001336
    19  C    7.304358   0.334207  -0.139820   0.353338  -0.367016   0.174858
    20  H    0.334207   0.493049   0.003411  -0.024239   0.002457  -0.001639
    21  H   -0.139820   0.003411   0.400074  -0.010607   0.159827  -0.077869
    22  H    0.353338  -0.024239  -0.010607   0.498920   0.005684  -0.000561
    23  O   -0.367016   0.002457   0.159827   0.005684   8.398331   0.066473
    24  O    0.174858  -0.001639  -0.077869  -0.000561   0.066473   7.867991
    25  H   -0.035215   0.000258   0.011089  -0.000014  -0.048101   0.250860
              25
     1  C    0.004102
     2  C   -0.000349
     3  C    0.018705
     4  H   -0.000000
     5  C    0.010044
     6  H   -0.000001
     7  C   -0.034240
     8  H   -0.000004
     9  C    0.042783
    10  H   -0.000037
    11  C   -0.005270
    12  C    0.009262
    13  C   -0.002273
    14  H    0.000011
    15  C   -0.013764
    16  H    0.000176
    17  H    0.000639
    18  H    0.000198
    19  C   -0.035215
    20  H    0.000258
    21  H    0.011089
    22  H   -0.000014
    23  O   -0.048101
    24  O    0.250860
    25  H    0.545430
 Mulliken charges:
               1
     1  C   -0.378688
     2  C   -0.318868
     3  C   -0.114346
     4  H    0.155152
     5  C   -0.088849
     6  H    0.155472
     7  C    0.179440
     8  H    0.160007
     9  C    0.478064
    10  H    0.162311
    11  C   -0.146351
    12  C   -0.210260
    13  C   -0.330148
    14  H    0.165056
    15  C   -0.241834
    16  H    0.175210
    17  H    0.182898
    18  H    0.269309
    19  C   -0.804755
    20  H    0.170490
    21  H    0.602379
    22  H    0.172355
    23  O   -0.413202
    24  O   -0.226553
    25  H    0.245710
 Sum of Mulliken charges =  -0.00000
 Mulliken charges with hydrogens summed into heavy atoms:
               1
     1  C   -0.223536
     2  C   -0.163396
     3  C    0.047964
     5  C    0.071159
     7  C    0.179440
     9  C    0.478064
    11  C    0.036548
    12  C   -0.045203
    13  C   -0.154938
    15  C    0.027475
    19  C   -0.461911
    23  O    0.189177
    24  O    0.019157
 Electronic spatial extent (au):  <R**2>=           2567.1051
 Charge=             -0.0000 electrons
 Dipole moment (field-independent basis, Debye):
    X=              4.6052    Y=              2.7865    Z=              2.4199  Tot=              5.9016
 Quadrupole moment (field-independent basis, Debye-Ang):
   XX=            -84.4905   YY=            -76.6522   ZZ=            -77.1499
   XY=            -10.9022   XZ=            -11.4730   YZ=             -6.9449
 Traceless Quadrupole moment (field-independent basis, Debye-Ang):
   XX=             -5.0596   YY=              2.7787   ZZ=              2.2810
   XY=            -10.9022   XZ=            -11.4730   YZ=             -6.9449
 Octapole moment (field-independent basis, Debye-Ang**2):
  XXX=             54.9989  YYY=              4.4677  ZZZ=             -3.8381  XYY=              6.1045
  XXY=             12.7330  XXZ=             12.5085  XZZ=             -0.3275  YZZ=             -0.2462
  YYZ=              2.0649  XYZ=              0.9835
 Hexadecapole moment (field-independent basis, Debye-Ang**3):
 XXXX=          -2329.1089 YYYY=           -706.6434 ZZZZ=           -447.8152 XXXY=            -87.3304
 XXXZ=           -101.2585 YYYX=            -24.9265 YYYZ=            -32.9093 ZZZX=             -0.4954
 ZZZY=             -0.4739 XXYY=           -503.1391 XXZZ=           -494.7438 YYZZ=           -180.9277
 XXYZ=            -45.7492 YYXZ=             -8.9012 ZZXY=              3.6541
 N-N= 7.586127348654D+02 E-N=-2.860938926847D+03  KE= 5.748036252226D+02
 Calling FoFJK, ICntrl=      2127 FMM=F ISym2X=0 I1Cent= 0 IOpClX= 0 NMat=1 NMatS=1 NMatT=0.
 ***** Axes restored to original set *****
 -------------------------------------------------------------------
 Center     Atomic                   Forces (Hartrees/Bohr)
 Number     Number              X              Y              Z
 -------------------------------------------------------------------
      1        6           0.019348542    0.017953304    0.006739373
      2        6           0.008659091   -0.017285902   -0.010644887
      3        6          -0.032264625    0.001774428    0.005432246
      4        1           0.003572140   -0.001488150   -0.001422181
      5        6          -0.015905440    0.005371739    0.005801613
      6        1           0.003877234    0.001011237   -0.000096653
      7        6          -0.020008555   -0.008323803   -0.002326079
      8        1           0.003354613    0.003128476    0.001148181
      9        6           0.018535038    0.014315549    0.005771133
     10        1           0.002013769   -0.003643452   -0.002282037
     11        6          -0.023081999   -0.003853911    0.012244692
     12        6           0.056101826    0.003025895   -0.007973709
     13        6          -0.051423680   -0.050884796   -0.017818137
     14        1          -0.001444977    0.003822676    0.002006419
     15        6           0.016250615    0.035081957   -0.010714482
     16        1          -0.002535036    0.003807803    0.003744183
     17        1          -0.000617969   -0.005221139   -0.001322854
     18        1           0.007752643    0.012735195   -0.006825839
     19        6           0.073956172   -0.068421830    0.160919285
     20        1          -0.000638725    0.001879616   -0.000552227
     21        1          -0.020839548    0.009863398    0.016519115
     22        1           0.000074864    0.001552720   -0.003627251
     23        8          -0.055910975    0.055734357   -0.158859181
     24        8           0.011831992   -0.028004459    0.007192034
     25        1          -0.000657006    0.016069094   -0.003052758
 -------------------------------------------------------------------
 Cartesian Forces:  Max     0.160919285 RMS     0.033619134

 GradGradGradGradGradGradGradGradGradGradGradGradGradGradGradGradGradGrad
 Berny optimization.
 FormGI is forming the generalized inverse of G from B-inverse, IUseBI=4.
 Internal  Forces:  Max     0.166789173 RMS     0.021738153
 Search for a saddle point.
 Step number   1 out of a maximum of  150
 All quantities printed in internal units (Hartrees-Bohrs-Radians)
 Swapping is turned off.
 Second derivative matrix not updated -- first step.
 ITU=  0
     Eigenvalues ---    0.00230   0.00230   0.00542   0.01235   0.01258
     Eigenvalues ---    0.01833   0.01878   0.01953   0.01973   0.01995
     Eigenvalues ---    0.02009   0.02036   0.02084   0.02086   0.02089
     Eigenvalues ---    0.02090   0.02161   0.02165   0.02180   0.03476
     Eigenvalues ---    0.04820   0.05480   0.06031   0.07111   0.11114
     Eigenvalues ---    0.13751   0.15999   0.15999   0.16000   0.16000
     Eigenvalues ---    0.16000   0.16000   0.16000   0.16000   0.16000
     Eigenvalues ---    0.16000   0.19799   0.20833   0.22000   0.22316
     Eigenvalues ---    0.22782   0.24251   0.24699   0.25809   0.30637
     Eigenvalues ---    0.32750   0.34024   0.34043   0.34743   0.34864
     Eigenvalues ---    0.35047   0.35071   0.35076   0.35174   0.35177
     Eigenvalues ---    0.37356   0.37810   0.39840   0.41444   0.42041
     Eigenvalues ---    0.43230   0.44258   0.44696   0.45628   0.45738
     Eigenvalues ---    0.45760   0.46676   0.51386   0.52067
 Eigenvectors required to have negative eigenvalues:
                          D59       D58       D60       D56       D57
   1                   -0.30900  -0.30725  -0.30390  -0.28240  -0.28240
                          D51       D50       D53       D54       D55
   1                   -0.28240  -0.28240  -0.28240  -0.28240  -0.28240
 RFO step:  Lambda0=2.386024214D-03 Lambda=-1.19989206D-01.
 Linear search not attempted -- option 19 set.
 Maximum step size (   0.300) exceeded in Quadratic search.
    -- Step size scaled by   0.606
 Iteration  1 RMS(Cart)=  0.10006821 RMS(Int)=  0.00490227
 Iteration  2 RMS(Cart)=  0.00684413 RMS(Int)=  0.00008053
 Iteration  3 RMS(Cart)=  0.00004164 RMS(Int)=  0.00007756
 Iteration  4 RMS(Cart)=  0.00000000 RMS(Int)=  0.00007756
 Variable       Old X    -DE/DX   Delta X   Delta X   Delta X     New X
                                 (Linear)    (Quad)   (Total)
    R1        2.62956   0.01239   0.00000   0.01215   0.01216   2.64171
    R2        2.63741  -0.02196   0.00000  -0.02296  -0.02295   2.61446
    R3        2.05393  -0.00406   0.00000  -0.00521  -0.00521   2.04872
    R4        2.63773  -0.01536   0.00000  -0.01639  -0.01639   2.62134
    R5        2.05388  -0.00396   0.00000  -0.00508  -0.00508   2.04880
    R6        2.65317   0.00955   0.00000   0.01060   0.01059   2.66377
    R7        2.05559  -0.00397   0.00000  -0.00511  -0.00511   2.05048
    R8        2.65356  -0.00250   0.00000  -0.00251  -0.00252   2.65104
    R9        2.05551  -0.00384   0.00000  -0.00494  -0.00494   2.05057
   R10        2.67094   0.01351   0.00000   0.01559   0.01553   2.68646
   R11        2.65226   0.01846   0.00000   0.01928   0.01921   2.67146
   R12        2.65634  -0.00959   0.00000  -0.00971  -0.00969   2.64665
   R13        2.68981   0.01594   0.00000   0.01824   0.01831   2.70813
   R14        2.06094  -0.00530   0.00000  -0.00687  -0.00687   2.05407
   R15        2.64033  -0.04025   0.00000  -0.04252  -0.04254   2.59779
   R16        2.05599  -0.00407   0.00000  -0.00524  -0.00524   2.05075
   R17        2.67921   0.03855   0.00000   0.04241   0.04246   2.72167
   R18        2.05896  -0.00542   0.00000  -0.00701  -0.00701   2.05195
   R19        2.13410  -0.00434   0.00000  -0.00616  -0.00616   2.12794
   R20        2.97194  -0.00947   0.00000  -0.01518  -0.01518   2.95676
   R21        2.07290  -0.00143   0.00000  -0.00188  -0.00188   2.07102
   R22        2.09490   0.16180   0.00000   0.21908   0.21908   2.31398
   R23        2.07258  -0.00106   0.00000  -0.00140  -0.00140   2.07118
   R24        1.85188   0.16679   0.00000   0.15944   0.15945   2.01133
   R25        2.75312  -0.01545   0.00000  -0.01896  -0.01896   2.73416
   R26        1.84535  -0.01290   0.00000  -0.01220  -0.01220   1.83315
    A1        2.09383   0.00244   0.00000   0.00305   0.00306   2.09688
    A2        2.09567  -0.00047   0.00000   0.00009   0.00009   2.09576
    A3        2.09369  -0.00197   0.00000  -0.00314  -0.00315   2.09054
    A4        2.09398   0.00340   0.00000   0.00428   0.00429   2.09827
    A5        2.09539  -0.00105   0.00000  -0.00074  -0.00074   2.09465
    A6        2.09381  -0.00235   0.00000  -0.00354  -0.00354   2.09027
    A7        2.10764  -0.00152   0.00000  -0.00225  -0.00225   2.10539
    A8        2.07491   0.00343   0.00000   0.00691   0.00691   2.08182
    A9        2.10064  -0.00191   0.00000  -0.00466  -0.00465   2.09598
   A10        2.10789  -0.00006   0.00000  -0.00062  -0.00064   2.10725
   A11        2.07459   0.00287   0.00000   0.00646   0.00646   2.08105
   A12        2.10071  -0.00281   0.00000  -0.00583  -0.00583   2.09488
   A13        2.08096  -0.00224   0.00000  -0.00228  -0.00227   2.07869
   A14        2.11645   0.00295   0.00000   0.00449   0.00455   2.12100
   A15        2.08573  -0.00071   0.00000  -0.00219  -0.00226   2.08347
   A16        2.08206  -0.00202   0.00000  -0.00217  -0.00219   2.07987
   A17        2.11779   0.00272   0.00000   0.00320   0.00321   2.12100
   A18        2.08329  -0.00070   0.00000  -0.00104  -0.00103   2.08226
   A19        2.12466   0.00353   0.00000   0.00741   0.00753   2.13219
   A20        2.08457  -0.00173   0.00000  -0.00362  -0.00368   2.08089
   A21        2.07391  -0.00181   0.00000  -0.00380  -0.00386   2.07004
   A22        2.11090   0.00272   0.00000   0.00305   0.00300   2.11390
   A23        2.09927  -0.00342   0.00000  -0.00599  -0.00596   2.09331
   A24        2.07295   0.00071   0.00000   0.00296   0.00298   2.07594
   A25        2.11039   0.00724   0.00000   0.01135   0.01142   2.12181
   A26        2.07798  -0.00138   0.00000  -0.00083  -0.00086   2.07712
   A27        2.09481  -0.00586   0.00000  -0.01052  -0.01056   2.08426
   A28        2.05051  -0.01196   0.00000  -0.01820  -0.01831   2.03220
   A29        1.83097   0.00116   0.00000  -0.00016   0.00017   1.83114
   A30        1.99700   0.01394   0.00000   0.02787   0.02789   2.02489
   A31        1.83295   0.00685   0.00000   0.01557   0.01555   1.84850
   A32        1.99985   0.00233   0.00000   0.00626   0.00613   2.00599
   A33        1.69469  -0.01359   0.00000  -0.03779  -0.03762   1.65707
   A34        1.91087   0.00175   0.00000   0.00377   0.00371   1.91458
   A35        1.93037  -0.00935   0.00000  -0.02136  -0.02129   1.90908
   A36        1.90957   0.00615   0.00000   0.01506   0.01520   1.92478
   A37        1.91955   0.00204   0.00000   0.00230   0.00221   1.92176
   A38        1.88273  -0.00110   0.00000   0.00004  -0.00015   1.88258
   A39        1.91009   0.00076   0.00000   0.00084   0.00087   1.91097
   A40        1.94428  -0.01028   0.00000  -0.02225  -0.02225   1.92203
   A41        1.68382   0.01804   0.00000   0.03904   0.03904   1.72287
   A42        3.20915   0.00473   0.00000   0.02219   0.02225   3.23140
   A43        3.28729  -0.01048   0.00000  -0.04729  -0.04727   3.24003
    D1       -0.00134  -0.00007   0.00000  -0.00026  -0.00026  -0.00160
    D2        3.14127  -0.00005   0.00000  -0.00017  -0.00018   3.14109
    D3        3.14086  -0.00007   0.00000  -0.00021  -0.00021   3.14065
    D4        0.00029  -0.00004   0.00000  -0.00013  -0.00013   0.00015
    D5       -0.00075   0.00007   0.00000   0.00038   0.00039  -0.00036
    D6        3.14158  -0.00004   0.00000  -0.00009  -0.00010   3.14148
    D7        3.14024   0.00006   0.00000   0.00034   0.00034   3.14058
    D8       -0.00062  -0.00005   0.00000  -0.00014  -0.00014  -0.00076
    D9        0.00054  -0.00011   0.00000  -0.00046  -0.00046   0.00007
   D10       -3.13931  -0.00004   0.00000  -0.00014  -0.00015  -3.13946
   D11        3.14111  -0.00014   0.00000  -0.00054  -0.00054   3.14057
   D12        0.00127  -0.00006   0.00000  -0.00022  -0.00023   0.00104
   D13        0.00360   0.00010   0.00000   0.00017   0.00016   0.00376
   D14        3.13626  -0.00041   0.00000  -0.00136  -0.00136   3.13489
   D15       -3.13874   0.00021   0.00000   0.00066   0.00065  -3.13808
   D16       -0.00608  -0.00030   0.00000  -0.00087  -0.00087  -0.00695
   D17        0.00232   0.00028   0.00000   0.00102   0.00101   0.00333
   D18       -3.12942  -0.00034   0.00000  -0.00116  -0.00118  -3.13061
   D19       -3.14105   0.00021   0.00000   0.00071   0.00071  -3.14034
   D20        0.01039  -0.00041   0.00000  -0.00147  -0.00149   0.00891
   D21       -0.00434  -0.00027   0.00000  -0.00087  -0.00086  -0.00520
   D22       -3.13718   0.00021   0.00000   0.00061   0.00061  -3.13657
   D23        3.12758   0.00036   0.00000   0.00131   0.00133   3.12891
   D24       -0.00526   0.00084   0.00000   0.00279   0.00280  -0.00246
   D25        3.13228   0.00043   0.00000   0.00113   0.00114   3.13342
   D26        0.00305  -0.00046   0.00000  -0.00098  -0.00097   0.00208
   D27        0.00056  -0.00018   0.00000  -0.00105  -0.00106  -0.00050
   D28       -3.12866  -0.00107   0.00000  -0.00317  -0.00317  -3.13183
   D29        3.13388   0.00086   0.00000   0.00338   0.00341   3.13730
   D30       -0.01825   0.00016   0.00000   0.00169   0.00173  -0.01652
   D31       -0.01665   0.00034   0.00000   0.00184   0.00188  -0.01477
   D32        3.11440  -0.00035   0.00000   0.00015   0.00020   3.11460
   D33        0.04181  -0.00280   0.00000  -0.00886  -0.00875   0.03306
   D34       -1.98548  -0.00562   0.00000  -0.01824  -0.01822  -2.00370
   D35        2.46253   0.00408   0.00000   0.01490   0.01485   2.47738
   D36       -3.08931  -0.00210   0.00000  -0.00718  -0.00707  -3.09638
   D37        1.16659  -0.00492   0.00000  -0.01656  -0.01654   1.15004
   D38       -0.66859   0.00477   0.00000   0.01657   0.01653  -0.65206
   D39        0.02612  -0.00186   0.00000  -0.00555  -0.00555   0.02057
   D40       -3.11344  -0.00198   0.00000  -0.00520  -0.00519  -3.11863
   D41       -3.12765  -0.00101   0.00000  -0.00353  -0.00352  -3.13118
   D42        0.01597  -0.00113   0.00000  -0.00318  -0.00316   0.01281
   D43       -0.04624   0.00333   0.00000   0.01045   0.01036  -0.03588
   D44        1.97998   0.00304   0.00000   0.01123   0.01128   1.99125
   D45       -2.46581  -0.00819   0.00000  -0.02199  -0.02187  -2.48768
   D46        3.09331   0.00346   0.00000   0.01011   0.01001   3.10332
   D47       -1.16366   0.00317   0.00000   0.01089   0.01092  -1.15274
   D48        0.67374  -0.00806   0.00000  -0.02232  -0.02222   0.65151
   D49        2.95623   0.00063   0.00000   0.08253   0.08229   3.03852
   D50       -1.20901  -0.00170   0.00000   0.07413   0.07388  -1.13513
   D51        0.89633  -0.00269   0.00000   0.07140   0.07113   0.96746
   D52       -0.88496   0.00107   0.00000   0.09490   0.09505  -0.78990
   D53        1.23299  -0.00125   0.00000   0.08651   0.08665   1.31963
   D54       -2.94486  -0.00224   0.00000   0.08378   0.08390  -2.86096
   D55        1.03719   0.00234   0.00000   0.09439   0.09452   1.13171
   D56       -3.12805   0.00002   0.00000   0.08599   0.08611  -3.04194
   D57       -1.02271  -0.00098   0.00000   0.08326   0.08336  -0.93934
   D58        0.97008   0.00104   0.00000   0.09683   0.09668   1.06675
   D59        3.04296   0.00202   0.00000   0.10512   0.10502  -3.13520
   D60       -1.17917  -0.00015   0.00000   0.09512   0.09537  -1.08380
   D61       -1.42421  -0.00442   0.00000  -0.02136  -0.02136  -1.44557
         Item               Value     Threshold  Converged?
 Maximum Force            0.166789     0.000450     NO 
 RMS     Force            0.021738     0.000300     NO 
 Maximum Displacement     0.748095     0.001800     NO 
 RMS     Displacement     0.103570     0.001200     NO 
 Predicted change in Energy=-5.600930D-02
 GradGradGradGradGradGradGradGradGradGradGradGradGradGradGradGradGradGrad

                          Input orientation:                          
 ---------------------------------------------------------------------
 Center     Atomic      Atomic             Coordinates (Angstroms)
 Number     Number       Type             X           Y           Z
 ---------------------------------------------------------------------
      1          6           0       -9.715320    1.320929    3.292993
      2          6           0       -9.923136    0.074486    2.695154
      3          6           0       -8.438160    1.845860    3.379110
      4          1           0      -10.554936    1.879233    3.691349
      5          6           0       -8.851152   -0.641911    2.183474
      6          1           0      -10.924796   -0.335113    2.629199
      7          6           0       -7.546776   -0.130761    2.256760
      8          1           0       -9.031019   -1.606925    1.721013
      9          6           0       -7.333468    1.134791    2.868209
     10          1           0       -8.292926    2.814570    3.845887
     11          6           0       -6.033779    1.651928    2.938259
     12          6           0       -6.443987   -0.840620    1.729088
     13          6           0       -5.170470   -0.327472    1.796999
     14          1           0       -6.597550   -1.803296    1.252268
     15          6           0       -4.900353    0.938681    2.428025
     16          1           0       -4.351402   -0.891869    1.361520
     17          1           0       -5.875388    2.630897    3.383259
     18          1           0       -4.273395    0.704724    3.333669
     19          6           0       -3.803634    1.805383    1.725053
     20          1           0       -2.942878    1.176586    1.470514
     21          1           0       -4.271417    2.308995    0.711662
     22          1           0       -3.454702    2.596247    2.398878
     23          8           0       -4.590085    2.662389   -0.240390
     24          8           0       -5.735233    3.533852   -0.090122
     25          1           0       -6.428908    2.857615   -0.039759
 ---------------------------------------------------------------------
                    Distance matrix (angstroms):
                    1          2          3          4          5
     1  C    0.000000
     2  C    1.397934   0.000000
     3  C    1.383513   2.410543   0.000000
     4  H    1.084134   2.156082   2.139941   0.000000
     5  C    2.414655   1.387153   2.790899   3.395989   0.000000
     6  H    2.155442   1.084179   3.391515   2.483604   2.143081
     7  C    2.807804   2.425160   2.441570   3.891934   1.402869
     8  H    3.392892   2.138215   3.875886   4.284605   1.085115
     9  C    2.426583   2.803672   1.409604   3.407288   2.434933
    10  H    2.135383   3.389665   1.085067   2.452637   3.875886
    11  C    3.713373   4.204108   2.452143   4.589082   3.710659
    12  C    4.221340   3.724941   3.730480   5.305467   2.457722
    13  C    5.060719   4.853461   4.231341   6.119688   3.714250
    14  H    4.862697   4.082586   4.607346   5.930518   2.700866
    15  C    4.906953   5.103581   3.774071   5.869832   4.262263
    16  H    6.115445   5.810047   5.316711   7.182683   4.581030
    17  H    4.058231   4.836630   2.680317   4.749536   4.583223
    18  H    5.476853   5.720532   4.318510   6.400404   4.908384
    19  C    6.135239   6.433149   4.921014   7.032201   5.628218
    20  H    7.014857   7.172054   5.855662   7.960480   6.222776
    21  H    6.105377   6.392903   4.969056   6.967485   5.643408
    22  H    6.451450   6.948935   5.134081   7.252442   6.297121
    23  O    6.368072   6.614839   5.345576   7.186888   5.911870
    24  O    5.673057   6.104384   4.710700   6.345614   5.684644
    25  H    4.926372   5.237861   4.092604   5.648230   4.801741
                    6          7          8          9         10
     6  H    0.000000
     7  C    3.404628   0.000000
     8  H    2.455341   2.160802   0.000000
     9  C    3.887850   1.421616   3.422681   0.000000
    10  H    4.281071   3.428853   4.960795   2.167503   0.000000
    11  C    5.288279   2.435484   4.591869   1.400546   2.698012
    12  C    4.598195   1.413677   2.698153   2.447657   4.610838
    13  C    5.814197   2.428354   4.067753   2.822103   4.880584
    14  H    4.772480   2.169656   2.485972   3.432957   5.561101
    15  C    6.160920   2.859474   4.903303   2.480377   4.127813
    16  H    6.717626   3.404578   4.747563   3.907708   5.953602
    17  H    5.904434   3.418961   5.538972   2.151652   2.468248
    18  H    6.768950   3.545814   5.529862   3.125006   4.568419
    19  C    7.490671   4.247644   6.242549   3.770441   5.066571
    20  H    8.206022   4.850073   6.698966   4.607882   6.078519
    21  H    7.411863   4.366660   6.245561   3.924998   5.123622
    22  H    8.027965   4.919536   7.015801   4.171444   5.054692
    23  O    7.572855   4.772784   6.464986   4.418495   5.516507
    24  O    7.021051   4.713695   6.369458   4.130565   4.748823
    25  H    6.126162   3.931160   5.459251   3.498947   4.309833
                   11         12         13         14         15
    11  C    0.000000
    12  C    2.800564   0.000000
    13  C    2.442499   1.374691   0.000000
    14  H    3.885740   1.085211   2.123992   0.000000
    15  C    1.433078   2.457078   1.440244   3.432393   0.000000
    16  H    3.433278   2.125239   1.085844   2.426482   2.188537
    17  H    1.086965   3.887289   3.430026   4.972394   2.174111
    18  H    2.037768   3.110344   2.057068   4.003010   1.126057
    19  C    2.543416   3.738022   2.534263   4.588251   1.564651
    20  H    3.454546   4.048918   2.707573   4.720588   2.192061
    21  H    2.914685   3.959204   2.989517   4.755427   2.284562
    22  H    2.798983   4.603965   3.443001   5.527041   2.199609
    23  O    3.634432   4.425706   3.664297   5.118621   3.191845
    24  O    3.577968   4.790392   4.334744   5.570524   3.711199
    25  H    3.237035   4.099511   3.886145   4.839614   3.479762
                   16         17         18         19         20
    16  H    0.000000
    17  H    4.338184   0.000000
    18  H    2.538615   2.505790   0.000000
    19  C    2.776216   2.779080   2.004937   0.000000
    20  H    2.504861   3.791203   2.337579   1.095935   0.000000
    21  H    3.267147   3.132695   3.073860   1.224503   1.903476
    22  H    3.747951   2.613413   2.263173   1.096020   1.771795
    23  O    3.905872   3.844975   4.087377   2.283842   2.801445
    24  O    4.858936   3.591566   4.675819   3.164418   3.973604
    25  H    4.509794   3.474887   4.545459   3.333739   4.154417
                   21         22         23         24         25
    21  H    0.000000
    22  H    1.896374   0.000000
    23  O    1.064350   2.873884   0.000000
    24  O    2.070239   3.503576   1.446856   0.000000
    25  H    2.349550   3.855018   1.860010   0.970060   0.000000
 Stoichiometry    C11H12O2
 Framework group  C1[X(C11H12O2)]
 Deg. of freedom    69
 Full point group                 C1      NOp   1
 Largest Abelian subgroup         C1      NOp   1
 Largest concise Abelian subgroup C1      NOp   1
                         Standard orientation:                         
 ---------------------------------------------------------------------
 Center     Atomic      Atomic             Coordinates (Angstroms)
 Number     Number       Type             X           Y           Z
 ---------------------------------------------------------------------
      1          6           0        3.028709   -1.273198    0.362974
      2          6           0        3.406414   -0.299608   -0.566370
      3          6           0        1.778775   -1.221804    0.953849
      4          1           0        3.715045   -2.070961    0.623481
      5          6           0        2.530194    0.721814   -0.902717
      6          1           0        4.386602   -0.341625   -1.027791
      7          6           0        1.256589    0.795163   -0.319112
      8          1           0        2.839182    1.467950   -1.627479
      9          6           0        0.872749   -0.191883    0.629253
     10          1           0        1.500112   -1.984785    1.673278
     11          6           0       -0.400018   -0.126247    1.210016
     12          6           0        0.345575    1.821193   -0.659403
     13          6           0       -0.903996    1.879595   -0.089369
     14          1           0        0.625684    2.574122   -1.389005
     15          6           0       -1.329926    0.917356    0.893983
     16          1           0       -1.584283    2.670085   -0.391683
     17          1           0       -0.701606   -0.895833    1.915904
     18          1           0       -1.457364    1.492461    1.853681
     19          6           0       -2.831821    0.490678    0.792044
     20          1           0       -3.459308    1.378254    0.652243
     21          1           0       -2.972947   -0.277451   -0.151073
     22          1           0       -3.149960   -0.003670    1.717067
     23          8           0       -3.169725   -0.841666   -1.031857
     24          8           0       -2.416613   -2.076880   -1.010395
     25          1           0       -1.569916   -1.738528   -1.341510
 ---------------------------------------------------------------------
 Rotational constants (GHZ):           1.3050346           0.5123141           0.4507785
 Standard basis: 6-311+G(2df,2p) (5D, 7F)
 There are   615 symmetry adapted cartesian basis functions of A   symmetry.
 There are   550 symmetry adapted basis functions of A   symmetry.
   550 basis functions,   808 primitive gaussians,   615 cartesian basis functions
    47 alpha electrons       47 beta electrons
       nuclear repulsion energy       750.0844016575 Hartrees.
 NAtoms=   25 NActive=   25 NUniq=   25 SFac= 1.00D+00 NAtFMM=   60 NAOKFM=F Big=F
 Integral buffers will be    131072 words long.
 Raffenetti 2 integral format.
 Two-electron integral symmetry is turned on.
 One-electron integrals computed using PRISM.
 NBasis=   550 RedAO= T EigKep=  2.10D-06  NBF=   550
 NBsUse=   548 1.00D-06 EigRej=  6.18D-07 NBFU=   548
 Initial guess from the checkpoint file:  "/scratch/dinius.ab/QMscratch/Gau-43790.chk"
 B after Tr=    -0.000000    0.000000    0.000000
         Rot=    0.998917    0.043853   -0.003168    0.015231 Ang=   5.33 deg.
 ExpMin= 4.38D-02 ExpMax= 8.59D+03 ExpMxC= 1.30D+03 IAcc=2 IRadAn=         4 AccDes= 0.00D+00
 Harris functional with IExCor= 1009 and IRadAn=       4 diagonalized for initial guess.
 HarFok:  IExCor= 1009 AccDes= 0.00D+00 IRadAn=         4 IDoV= 1 UseB2=F ITyADJ=14
 ICtDFT=  3500011 ScaDFX=  1.000000  1.000000  1.000000  1.000000
 FoFCou: FMM=F IPFlag=           0 FMFlag=      100000 FMFlg1=           0
         NFxFlg=           0 DoJE=T BraDBF=F KetDBF=T FulRan=T
         wScrn=  0.000000 ICntrl=       500 IOpCl=  0 I1Cent=   200000004 NGrid=           0
         NMat0=    1 NMatS0=      1 NMatT0=    0 NMatD0=    1 NMtDS0=    0 NMtDT0=    0
 Petite list used in FoFCou.
 Requested convergence on RMS density matrix=1.00D-08 within 128 cycles.
 Requested convergence on MAX density matrix=1.00D-06.
 Requested convergence on             energy=1.00D-06.
 No special actions if energy rises.
 SCF Done:  E(RM062X) =  -576.515261542     A.U. after   16 cycles
            NFock= 16  Conv=0.35D-08     -V/T= 2.0034
 Calling FoFJK, ICntrl=      2127 FMM=F ISym2X=0 I1Cent= 0 IOpClX= 0 NMat=1 NMatS=1 NMatT=0.
 ***** Axes restored to original set *****
 -------------------------------------------------------------------
 Center     Atomic                   Forces (Hartrees/Bohr)
 Number     Number              X              Y              Z
 -------------------------------------------------------------------
      1        6           0.011775292    0.012097128    0.004166182
      2        6           0.006156072   -0.011205636   -0.006388322
      3        6          -0.021043745    0.000946651    0.003265570
      4        1           0.001704619   -0.001072705   -0.000871949
      5        6          -0.010730098    0.003522455    0.003725992
      6        1           0.001931981    0.000760441    0.000050841
      7        6          -0.011354312   -0.004206114   -0.001366684
      8        1           0.002453797    0.001674970    0.000415489
      9        6           0.012637261    0.006626196    0.002658929
     10        1           0.002053385   -0.001998902   -0.001256719
     11        6          -0.010875389   -0.006097682    0.007147545
     12        6           0.033867378    0.002472383   -0.004363840
     13        6          -0.030674465   -0.028589063   -0.006564402
     14        1          -0.002037089    0.002198261    0.000992951
     15        6           0.002415008    0.020000597   -0.012699095
     16        1          -0.000231673    0.003019691    0.002568744
     17        1           0.000205241   -0.002553806   -0.000324150
     18        1           0.004882791    0.008830529   -0.005103653
     19        6           0.039741914   -0.033691898    0.075988342
     20        1          -0.001136492    0.000957675    0.000672887
     21        1          -0.011808177    0.005641416    0.002238990
     22        1          -0.001151616    0.000815871   -0.002851208
     23        8          -0.027633752    0.030601221   -0.065245913
     24        8           0.007756579   -0.020521499    0.005489553
     25        1           0.001095492    0.009771821   -0.002346080
 -------------------------------------------------------------------
 Cartesian Forces:  Max     0.075988342 RMS     0.016591377

 GradGradGradGradGradGradGradGradGradGradGradGradGradGradGradGradGradGrad
 Berny optimization.
[...]
   R17        2.78948  -0.00130   0.00000  -0.01251  -0.01203   2.77744
   R18        2.04589   0.00001   0.00000  -0.00034  -0.00034   2.04555
   R19        2.12207   0.00241   0.00000   0.02882   0.02882   2.15089
   R20        2.89179  -0.00106   0.00000  -0.02778  -0.02779   2.86400
   R21        2.06389  -0.00000   0.00000  -0.00335  -0.00335   2.06053
   R22        2.98356   0.00455   0.00000   0.07129   0.07127   3.05483
   R23        2.06513  -0.00009   0.00000  -0.00443  -0.00443   2.06069
   R24        2.01017  -0.00726   0.00000  -0.03825  -0.03823   1.97194
   R25        2.69772  -0.00220   0.00000  -0.00363  -0.00363   2.69409
   R26        1.81654   0.00028   0.00000   0.00065   0.00065   1.81719
    A1        2.09494   0.00011   0.00000   0.00276   0.00273   2.09767
    A2        2.08773   0.00014   0.00000  -0.00077  -0.00076   2.08697
    A3        2.10052  -0.00026   0.00000  -0.00199  -0.00198   2.09854
    A4        2.10610   0.00001   0.00000  -0.00359  -0.00364   2.10246
    A5        2.08482   0.00008   0.00000   0.00144   0.00146   2.08629
    A6        2.09226  -0.00009   0.00000   0.00215   0.00218   2.09443
    A7        2.10219  -0.00003   0.00000   0.00100   0.00100   2.10319
    A8        2.11073  -0.00026   0.00000  -0.00095  -0.00095   2.10978
    A9        2.07007   0.00030   0.00000  -0.00004  -0.00004   2.07003
   A10        2.10439   0.00006   0.00000   0.00073   0.00066   2.10505
   A11        2.10088  -0.00001   0.00000   0.00095   0.00098   2.10186
   A12        2.07786  -0.00005   0.00000  -0.00166  -0.00162   2.07623
   A13        2.07723  -0.00013   0.00000   0.00254   0.00271   2.07995
   A14        2.13070   0.00019   0.00000   0.00038   0.00064   2.13134
   A15        2.07479  -0.00005   0.00000  -0.00295  -0.00337   2.07141
   A16        2.08107  -0.00001   0.00000  -0.00336  -0.00338   2.07768
   A17        2.12096   0.00009   0.00000  -0.00008  -0.00012   2.12084
   A18        2.08082  -0.00008   0.00000   0.00325   0.00329   2.08411
   A19        2.15026  -0.00038   0.00000  -0.00765  -0.00658   2.14368
   A20        2.08004  -0.00014   0.00000   0.00131   0.00076   2.08080
   A21        2.05261   0.00053   0.00000   0.00637   0.00584   2.05845
   A22        2.11635   0.00018   0.00000   0.00169   0.00179   2.11814
   A23        2.05776   0.00046   0.00000   0.00203   0.00197   2.05972
   A24        2.10908  -0.00064   0.00000  -0.00370  -0.00377   2.10530
   A25        2.13505   0.00001   0.00000  -0.00514  -0.00414   2.13091
   A26        2.11022  -0.00040   0.00000   0.00097   0.00044   2.11066
   A27        2.03775   0.00039   0.00000   0.00436   0.00383   2.04159
   A28        1.99970   0.00043   0.00000   0.01209   0.01022   2.00992
   A29        1.70637   0.00114   0.00000   0.01037   0.01145   1.71782
   A30        2.10708   0.00028   0.00000   0.03461   0.03136   2.13845
   A31        1.84172   0.00205   0.00000   0.02853   0.02790   1.86962
   A32        2.03727   0.00047   0.00000   0.02089   0.01726   2.05454
   A33        1.66495  -0.00522   0.00000  -0.15737  -0.15600   1.50895
   A34        1.91000   0.00366   0.00000   0.05048   0.05209   1.96210
   A35        1.83030  -0.00797   0.00000  -0.12065  -0.12037   1.70994
   A36        1.95025   0.00269   0.00000   0.03045   0.02369   1.97394
   A37        2.01545   0.00180   0.00000   0.04486   0.04594   2.06139
   A38        1.89019  -0.00047   0.00000   0.03164   0.02949   1.91968
   A39        1.86816   0.00027   0.00000  -0.04005  -0.04084   1.82732
   A40        1.78483  -0.00618   0.00000  -0.05438  -0.05438   1.73045
   A41        1.77556   0.00006   0.00000  -0.01403  -0.01403   1.76153
   A42        3.11505  -0.00744   0.00000  -0.15027  -0.15046   2.96458
   A43        3.11690   0.00089   0.00000  -0.04483  -0.04553   3.07137
    D1        0.00717  -0.00008   0.00000  -0.00135  -0.00134   0.00582
    D2       -3.13658  -0.00004   0.00000  -0.00135  -0.00136  -3.13794
    D3       -3.13331  -0.00012   0.00000  -0.00123  -0.00121  -3.13452
    D4        0.00613  -0.00008   0.00000  -0.00123  -0.00123   0.00490
    D5        0.01768  -0.00016   0.00000  -0.00047  -0.00045   0.01723
    D6        3.13797  -0.00000   0.00000  -0.00008  -0.00006   3.13791
    D7       -3.12503  -0.00011   0.00000  -0.00059  -0.00058  -3.12562
    D8       -0.00474   0.00004   0.00000  -0.00020  -0.00020  -0.00494
    D9       -0.01697   0.00012   0.00000   0.00036   0.00035  -0.01662
   D10        3.13588   0.00000   0.00000  -0.00099  -0.00101   3.13487
   D11        3.12678   0.00008   0.00000   0.00036   0.00036   3.12715
   D12       -0.00355  -0.00004   0.00000  -0.00099  -0.00100  -0.00455
   D13       -0.03234   0.00034   0.00000   0.00331   0.00325  -0.02909
   D14        3.08119   0.00028   0.00000  -0.00454  -0.00448   3.07671
   D15        3.13006   0.00020   0.00000   0.00294   0.00289   3.13295
   D16       -0.03960   0.00014   0.00000  -0.00491  -0.00484  -0.04444
   D17        0.00188   0.00007   0.00000   0.00244   0.00243   0.00431
   D18        3.11033   0.00018   0.00000   0.00151   0.00148   3.11181
   D19        3.13237   0.00018   0.00000   0.00379   0.00378   3.13615
   D20       -0.04237   0.00029   0.00000   0.00286   0.00284  -0.03954
   D21        0.02238  -0.00029   0.00000  -0.00422  -0.00417   0.01821
   D22       -3.09180  -0.00024   0.00000   0.00350   0.00344  -3.08836
   D23       -3.08714  -0.00040   0.00000  -0.00338  -0.00333  -3.09047
   D24        0.08187  -0.00035   0.00000   0.00434   0.00428   0.08615
   D25        3.09786   0.00016   0.00000   0.00321   0.00313   3.10099
   D26       -0.04144   0.00014   0.00000  -0.00563  -0.00558  -0.04702
   D27       -0.07683   0.00027   0.00000   0.00239   0.00230  -0.07453
   D28        3.06705   0.00025   0.00000  -0.00645  -0.00641   3.06064
   D29       -3.09403  -0.00018   0.00000  -0.00691  -0.00683  -3.10086
   D30        0.07366  -0.00070   0.00000  -0.00845  -0.00827   0.06539
   D31        0.01951  -0.00024   0.00000  -0.01486  -0.01469   0.00481
   D32       -3.09599  -0.00076   0.00000  -0.01640  -0.01614  -3.11213
   D33       -0.11787   0.00078   0.00000   0.01625   0.01635  -0.10152
   D34       -2.05627  -0.00233   0.00000  -0.02596  -0.02578  -2.08205
   D35        2.46347   0.00309   0.00000   0.14607   0.14654   2.61001
   D36        2.99802   0.00128   0.00000   0.01770   0.01770   3.01572
   D37        1.05961  -0.00182   0.00000  -0.02451  -0.02442   1.03519
   D38       -0.70384   0.00360   0.00000   0.14752   0.14790  -0.55594
   D39       -0.03018   0.00035   0.00000   0.00111   0.00124  -0.02894
   D40        3.13162   0.00027   0.00000  -0.01107  -0.01078   3.12085
   D41        3.10905   0.00037   0.00000   0.01022   0.01019   3.11924
   D42       -0.01233   0.00030   0.00000  -0.00196  -0.00183  -0.01416
   D43        0.12359  -0.00081   0.00000  -0.00906  -0.00937   0.11423
   D44        1.97950   0.00186   0.00000   0.02419   0.02497   2.00448
   D45       -2.48113  -0.00296   0.00000  -0.13822  -0.13787  -2.61900
   D46       -3.03742  -0.00075   0.00000   0.00260   0.00217  -3.03525
   D47       -1.18151   0.00193   0.00000   0.03586   0.03651  -1.14500
   D48        0.64104  -0.00290   0.00000  -0.12655  -0.12634   0.51470
   D49        2.88017   0.00002   0.00000   0.06252   0.06197   2.94214
   D50       -1.23104  -0.00062   0.00000   0.07127   0.07025  -1.16079
   D51        0.78673  -0.00353   0.00000  -0.02995  -0.03166   0.75507
   D52       -0.83314   0.00236   0.00000   0.19246   0.19331  -0.63983
   D53        1.33883   0.00172   0.00000   0.20122   0.20160   1.54042
   D54       -2.92659  -0.00119   0.00000   0.09999   0.09968  -2.82690
   D55        1.09364   0.00188   0.00000   0.14139   0.14271   1.23635
   D56       -3.01757   0.00124   0.00000   0.15015   0.15099  -2.86658
   D57       -0.99980  -0.00167   0.00000   0.04892   0.04908  -0.95072
   D58       -0.35562   0.00016   0.00000   0.14846   0.15594  -0.19968
   D59        1.75186  -0.00083   0.00000   0.14888   0.14662   1.89848
   D60       -2.42256   0.00182   0.00000   0.21830   0.21309  -2.20947
   D61       -1.84571   0.00009   0.00000  -0.01571  -0.01571  -1.86142
         Item               Value     Threshold  Converged?
 Maximum Force            0.007966     0.000450     NO 
 RMS     Force            0.001760     0.000300     NO 
 Maximum Displacement     1.118166     0.001800     NO 
 RMS     Displacement     0.193495     0.001200     NO 
 Predicted change in Energy=-7.755783D-03
 GradGradGradGradGradGradGradGradGradGradGradGradGradGradGradGradGradGrad

                          Input orientation:                          
 ---------------------------------------------------------------------
 Center     Atomic      Atomic             Coordinates (Angstroms)
 Number     Number       Type             X           Y           Z
 ---------------------------------------------------------------------
      1          6           0       -9.668729    1.367855    3.335687
      2          6           0       -9.900729    0.193846    2.593142
      3          6           0       -8.394977    1.837171    3.499745
      4          1           0      -10.503878    1.894566    3.775829
      5          6           0       -8.852098   -0.494524    2.032844
      6          1           0      -10.912548   -0.165963    2.467200
      7          6           0       -7.536239   -0.029904    2.173585
      8          1           0       -9.030496   -1.400270    1.467437
      9          6           0       -7.297652    1.161789    2.908936
     10          1           0       -8.204153    2.740008    4.065277
     11          6           0       -5.994668    1.664945    2.998465
     12          6           0       -6.415583   -0.740750    1.633579
     13          6           0       -5.165553   -0.258438    1.737247
     14          1           0       -6.602740   -1.686969    1.141229
     15          6           0       -4.877792    1.034566    2.374055
     16          1           0       -4.321753   -0.810435    1.343526
     17          1           0       -5.811721    2.559155    3.583221
     18          1           0       -4.264334    0.818858    3.308211
     19          6           0       -3.675322    1.812428    1.878141
     20          1           0       -2.840276    1.163108    1.613513
     21          1           0       -4.410227    2.629483    0.692577
     22          1           0       -3.343585    2.579628    2.578486
     23          8           0       -5.034218    3.172627    0.056544
     24          8           0       -6.212166    2.376290    0.160302
     25          1           0       -6.213433    1.940128   -0.696708
 ---------------------------------------------------------------------
                    Distance matrix (angstroms):
                    1          2          3          4          5
     1  C    0.000000
     2  C    1.408366   0.000000
     3  C    1.367339   2.406187   0.000000
     4  H    1.081029   2.157542   2.127670   0.000000
     5  C    2.415107   1.373832   2.792411   3.387348   0.000000
     6  H    2.157302   1.081250   3.378884   2.474934   2.131214
     7  C    2.802093   2.411826   2.445833   3.882995   1.402557
     8  H    3.400032   2.136755   3.874944   4.284329   1.082537
     9  C    2.417971   2.795112   1.417504   3.401228   2.434587
    10  H    2.135437   3.395364   1.082292   2.467243   3.874638
    11  C    3.701446   4.193534   2.458135   4.581484   3.709533
    12  C    4.233951   3.733694   3.747833   5.314911   2.481259
    13  C    5.047617   4.833116   4.234048   6.106469   3.705905
    14  H    4.852616   4.064757   4.603724   5.915014   2.697501
    15  C    4.897846   5.097520   3.779147   5.861520   4.271961
    16  H    6.107684   5.804748   5.315097   7.172991   4.593363
    17  H    4.044376   4.826482   2.683550   4.742901   4.579576
    18  H    5.432278   5.715848   4.258622   6.348837   4.939546
    19  C    6.184094   6.471996   4.990527   7.087816   5.669653
    20  H    7.045252   7.193687   5.904823   7.996338   6.250247
    21  H    6.019101   6.300007   4.938237   6.868706   5.593384
    22  H    6.484535   6.977701   5.188114   7.291964   6.331813
    23  O    5.957237   6.244229   4.993374   6.736743   5.650661
    24  O    4.800816   4.928211   4.025816   5.632307   4.326341
    25  H    5.341047   5.241065   4.730746   6.197869   4.510048
                    6          7          8          9         10
     6  H    0.000000
     7  C    3.391782   0.000000
     8  H    2.462755   2.146941   0.000000
     9  C    3.876278   1.420491   3.412450   0.000000
    10  H    4.281813   3.420091   4.957169   2.156303   0.000000
    11  C    5.274468   2.435032   4.577755   1.399624   2.678744
    12  C    4.609555   1.432752   2.701915   2.454432   4.607365
    13  C    5.793905   2.421316   4.039105   2.817046   4.862458
    14  H    4.758793   2.164034   2.466294   3.423903   5.541905
    15  C    6.153717   2.870649   4.898504   2.481534   4.102858
    16  H    6.716887   3.410447   4.747160   3.898224   5.923395
    17  H    5.889839   3.415298   5.523957   2.148321   2.447205
    18  H    6.773177   3.565548   5.570394   3.078643   4.448162
    19  C    7.525853   4.288141   6.258434   3.821929   5.114125
    20  H    8.225374   4.877399   6.701572   4.641802   6.104828
    21  H    7.296847   4.363218   6.179499   3.924741   5.077518
    22  H    8.052320   4.954992   7.029579   4.213563   5.085409
    23  O    7.177201   4.582377   6.234762   4.159657   5.128897
    24  O    5.820517   3.405326   4.890193   3.195040   4.398764
    25  H    6.043808   3.724167   4.876231   3.844738   5.222957
                   11         12         13         14         15
    11  C    0.000000
    12  C    2.797758   0.000000
    13  C    2.444894   1.343855   0.000000
    14  H    3.880001   1.082944   2.112213   0.000000
    15  C    1.426422   2.462692   1.469758   3.449936   0.000000
    16  H    3.415403   2.114973   1.082458   2.451966   2.185222
    17  H    1.083984   3.880093   3.429867   4.961714   2.158398
    18  H    1.950862   3.140803   2.107295   4.055012   1.138204
    19  C    2.579970   3.753339   2.555215   4.621536   1.515563
    20  H    3.481397   4.050666   2.728189   4.743640   2.178627
    21  H    2.959376   4.033039   3.162585   4.862114   2.364264
    22  H    2.835714   4.621139   3.475899   5.558026   2.186961
    23  O    3.442451   4.439564   3.822855   5.220390   3.156997
    24  O    2.934022   3.453673   3.244063   4.198194   2.912298
    25  H    3.711858   3.557837   3.443237   4.084777   3.468943
                   16         17         18         19         20
    16  H    0.000000
    17  H    4.311656   0.000000
    18  H    2.553014   2.344925   0.000000
    19  C    2.753742   2.833567   1.838264   0.000000
    20  H    2.482446   3.828600   2.240189   1.090388   0.000000
    21  H    3.502084   3.213247   3.184523   1.616548   2.337333
    22  H    3.738243   2.664884   2.116740   1.090472   1.786343
    23  O    4.246023   3.663101   4.087333   2.648576   3.357931
    24  O    3.889588   3.451112   4.016090   3.115203   3.866946
    25  H    3.912365   4.343082   4.592996   3.617757   4.161619
                   21         22         23         24         25
    21  H    0.000000
    22  H    2.167225   0.000000
    23  O    1.043507   3.093555   0.000000
    24  O    1.895892   3.757356   1.425651   0.000000
    25  H    2.378419   4.401351   1.864670   0.961616   0.000000
 Stoichiometry    C11H12O2
 Framework group  C1[X(C11H12O2)]
 Deg. of freedom    69
 Full point group                 C1      NOp   1
 Largest Abelian subgroup         C1      NOp   1
 Largest concise Abelian subgroup C1      NOp   1
                         Standard orientation:                         
 ---------------------------------------------------------------------
 Center     Atomic      Atomic             Coordinates (Angstroms)
 Number     Number       Type             X           Y           Z
 ---------------------------------------------------------------------
      1          6           0        3.001389    1.112990   -0.405875
      2          6           0        3.299405    0.075342    0.498540
      3          6           0        1.768090    1.180757   -0.992389
      4          1           0        3.754207    1.854490   -0.634056
      5          6           0        2.359154   -0.881351    0.795323
      6          1           0        4.276905    0.033836    0.958836
      7          6           0        1.081533   -0.830072    0.218936
      8          1           0        2.590903   -1.682219    1.485823
      9          6           0        0.770398    0.222657   -0.682592
     10          1           0        1.525899    1.975166   -1.686373
     11          6           0       -0.522352    0.315568   -1.210904
     12          6           0        0.088507   -1.829958    0.477593
     13          6           0       -1.145964   -1.741556   -0.046061
     14          1           0        0.362479   -2.668337    1.105946
     15          6           0       -1.560808   -0.604677   -0.880089
     16          1           0       -1.884978   -2.510687    0.138360
     17          1           0       -0.748929    1.103687   -1.919813
     18          1           0       -1.762421   -1.010903   -1.924044
     19          6           0       -3.023313   -0.208019   -0.854116
     20          1           0       -3.686727   -1.070067   -0.778620
     21          1           0       -2.956393    0.813430    0.397040
     22          1           0       -3.313425    0.412455   -1.702630
     23          8           0       -2.740758    1.529525    1.124787
     24          8           0       -1.419687    1.115770    1.465466
     25          1           0       -1.570195    0.716692    2.327318
 ---------------------------------------------------------------------
 Rotational constants (GHZ):           1.3816924           0.5573116           0.5160693
 Standard basis: 6-311+G(2df,2p) (5D, 7F)
 There are   615 symmetry adapted cartesian basis functions of A   symmetry.
 There are   550 symmetry adapted basis functions of A   symmetry.
   550 basis functions,   808 primitive gaussians,   615 cartesian basis functions
    47 alpha electrons       47 beta electrons
       nuclear repulsion energy       766.7547192077 Hartrees.
 NAtoms=   25 NActive=   25 NUniq=   25 SFac= 1.00D+00 NAtFMM=   60 NAOKFM=F Big=F
 Integral buffers will be    131072 words long.
 Raffenetti 2 integral format.
 Two-electron integral symmetry is turned on.
 One-electron integrals computed using PRISM.
 NBasis=   550 RedAO= T EigKep=  2.04D-06  NBF=   550
 NBsUse=   548 1.00D-06 EigRej=  6.04D-07 NBFU=   548
 Initial guess from the checkpoint file:  "/scratch/dinius.ab/QMscratch/Gau-43790.chk"
 B after Tr=    -0.000000   -0.000000    0.000000
         Rot=    0.945085   -0.324877   -0.028842    0.020925 Ang= -38.15 deg.
 ExpMin= 4.38D-02 ExpMax= 8.59D+03 ExpMxC= 1.30D+03 IAcc=2 IRadAn=         4 AccDes= 0.00D+00
 Harris functional with IExCor= 1009 and IRadAn=       4 diagonalized for initial guess.
 HarFok:  IExCor= 1009 AccDes= 0.00D+00 IRadAn=         4 IDoV= 1 UseB2=F ITyADJ=14
 ICtDFT=  3500011 ScaDFX=  1.000000  1.000000  1.000000  1.000000
 FoFCou: FMM=F IPFlag=           0 FMFlag=      100000 FMFlg1=           0
         NFxFlg=           0 DoJE=T BraDBF=F KetDBF=T FulRan=T
         wScrn=  0.000000 ICntrl=       500 IOpCl=  0 I1Cent=   200000004 NGrid=           0
         NMat0=    1 NMatS0=      1 NMatT0=    0 NMatD0=    1 NMtDS0=    0 NMtDT0=    0
 Petite list used in FoFCou.
 Requested convergence on RMS density matrix=1.00D-08 within 128 cycles.
 Requested convergence on MAX density matrix=1.00D-06.
 Requested convergence on             energy=1.00D-06.
 No special actions if energy rises.
