 Entering Gaussian System, Link 0=g16
 Input=../rxn932.com
 Output=../rxn932.log
 Initial command:
 /shared/centos7/gaussian/g16/l1.exe "/scratch/dinius.ab/QMscratch/Gau-19569.inp" -scrdir="/scratch/dinius.ab/QMscratch/"
 Entering Link 1 = /shared/centos7/gaussian/g16/l1.exe PID=     19570.
  
 Copyright (c) 1988,1990,1992,1993,1995,1998,2003,2009,2016,
            Gaussian, Inc.  All Rights Reserved.
  
 This is part of the Gaussian(R) 16 program.  It is based on
 the Gaussian(R) 09 system (copyright 2009, Gaussian, Inc.),
 the Gaussian(R) 03 system (copyright 2003, Gaussian, Inc.),
 the Gaussian(R) 98 system (copyright 1998, Gaussian, Inc.),
 the Gaussian(R) 94 system (copyright 1995, Gaussian, Inc.),
 the Gaussian 92(TM) system (copyright 1992, Gaussian, Inc.),
 the Gaussian 90(TM) system (copyright 1990, Gaussian, Inc.),
 the Gaussian 88(TM) system (copyright 1988, Gaussian, Inc.),
 the Gaussian 86(TM) system (copyright 1986, Carnegie Mellon
 University), and the Gaussian 82(TM) system (copyright 1983,
 Carnegie Mellon University). Gaussian is a federally registered
 trademark of Gaussian, Inc.
  
 This software contains proprietary and confidential information,
 including trade secrets, belonging to Gaussian, Inc.
  
 This software is provided under written license and may be
 used, copied, transmitted, or stored only in accord with that
 written license.
  
 The following legend is applicable only to US Government
 contracts under FAR:
  
                    RESTRICTED RIGHTS LEGEND
  
 Use, reproduction and disclosure by the US Government is
 subject to restrictions as set forth in subparagraphs (a)
 and (c) of the Commercial Computer Software - Restricted
 Rights clause in FAR 52.227-19.
  
 Gaussian, Inc.
 340 Quinnipiac St., Bldg. 40, Wallingford CT 06492
  
  
 ---------------------------------------------------------------
 Warning -- This program may not be used in any manner that
 competes with the business of Gaussian, Inc. or will provide
 assistance to any competitor of Gaussian, Inc.  The licensee
 of this program is prohibited from giving any competitor of
 Gaussian, Inc. access to this program.  By using this program,
 the user acknowledges that Gaussian, Inc. is engaged in the
 business of creating and licensing software in the field of
 computational chemistry and represents and warrants to the
 licensee that it is not a competitor of Gaussian, Inc. and that
 it will not use this program in any manner prohibited above.
 ---------------------------------------------------------------
  

 Cite this work as:
 Gaussian 16, Revision A.03,
 M. J. Frisch, G. W. Trucks, H. B. Schlegel, G. E. Scuseria, 
 M. A. Robb, J. R. Cheeseman, G. Scalmani, V. Barone, 
 G. A. Petersson, H. Nakatsuji, X. Li, M. Caricato, A. V. Marenich, 
 J. Bloino, B. G. Janesko, R. Gomperts, B. Mennucci, H. P. Hratchian, 
 J. V. Ortiz, A. F. Izmaylov, J. L. Sonnenberg, D. Williams-Young, 
 F. Ding, F. Lipparini, F. Egidi, J. Goings, B. Peng, A. Petrone, 
 T. Henderson, D. Ranasinghe, V. G. Zakrzewski, J. Gao, N. Rega, 
 G. Zheng, W. Liang, M. Hada, M. Ehara, K. Toyota, R. Fukuda, 
 J. Hasegawa, M. Ishida, T. Nakajima, Y. Honda, O. Kitao, H. Nakai, 
 T. Vreven, K. Throssell, J. A. Montgomery, Jr., J. E. Peralta, 
 F. Ogliaro, M. J. Bearpark, J. J. Heyd, E. N. Brothers, K. N. Kudin, 
 V. N. Staroverov, T. A. Keith, R. Kobayashi, J. Normand, 
 K. Raghavachari, A. P. Rendell, J. C. Burant, S. S. Iyengar, 
 J. Tomasi, M. Cossi, J. M. Millam, M. Klene, C. Adamo, R. Cammi, 
 J. W. Ochterski, R. L. Martin, K. Morokuma, O. Farkas, 
 J. B. Foresman, and D. J. Fox, Gaussian, Inc., Wallingford CT, 2016.
 
 ******************************************
 Gaussian 16:  EM64L-G16RevA.03 25-Dec-2016
                15-Oct-2018 
 ******************************************
 ----------------------------------------------
 #m062x/6-311+g(2df,2p) freq Opt=(TS, ModRedun)
 ----------------------------------------------
 1/5=1,18=120,26=3,38=1/1,3;
 2/9=110,12=2,17=6,18=5,40=1/2;
 3/5=4,6=6,7=214,11=2,25=1,30=1,71=1,74=-55/1,2,3;
 4//1;
 5/5=2,38=5/2;
 6/7=2,8=2,9=2,10=2,28=1/1;
 7//1,2,3,16;
 1/5=1,18=20,26=3/3(2);
 2/9=110/2;
 99//99;
 2/9=110/2;
 3/5=4,6=6,7=214,11=2,25=1,30=1,71=1,74=-55/1,2,3;
 4/5=5,16=3,69=1/1;
 5/5=2,38=5/2;
 7//1,2,3,16;
 1/5=1,18=20,26=3/3(-5);
 2/9=110/2;
 6/7=2,8=2,9=2,10=2,19=2,28=1/1;
 99/9=1/99;
 -----
 Title
 -----
 Symbolic Z-matrix:
 Charge =  0 Multiplicity = 2
 C                    -6.1143    1.07459  -0.21045 
 C                    -5.65669   1.98485  -1.16273 
 C                    -4.29549   2.29261  -1.24078 
 C                    -3.36638   1.69062  -0.36918 
 C                    -5.21123   0.47361   0.66664 
 C                    -3.84768   0.77694   0.59246 
 H                    -7.16866   0.83766  -0.14961 
 H                    -5.56867  -0.22794   1.40957 
 H                    -3.20007   0.29647   1.30096 
 H                    -3.96782   3.00329  -1.98995 
 H                    -6.35706   2.45397  -1.84172 
 C                    -1.92964   2.07331  -0.51228 
 C                    -0.88272   1.52732   0.15351 
 H                    -1.74607   2.86576  -1.22268 
 C                     0.53924   1.98031  -0.0232 
 H                    -1.05889   0.6233    0.93057 
 C                     0.93065   2.98245  -0.94309 
 C                     2.27238   3.36029  -1.05851 
 H                     0.22754   3.4873   -1.58495 
 C                     1.54023   1.38292   0.7692 
 C                     3.24497   2.75364  -0.26492 
 H                     2.55832   4.12722  -1.76704 
 C                     2.87884   1.76639   0.64837 
 H                     1.29598   0.61803   1.49156 
 H                     3.63348   1.2966    1.26606 
 H                     4.28207   3.04933  -0.35713 
 O                    -0.91807  -0.47074   0.87875 
 O                    -1.05487  -0.90054   2.11717 
 H                    -0.13242  -1.09229   2.42247 
 
 The following ModRedundant input section has been read:
 

 GradGradGradGradGradGradGradGradGradGradGradGradGradGradGradGradGradGrad
 Berny optimization.
 Initialization pass.
                           ----------------------------
                           !    Initial Parameters    !
                           ! (Angstroms and Degrees)  !
 --------------------------                            --------------------------
 ! Name  Definition              Value          Derivative Info.                !
 --------------------------------------------------------------------------------
 ! R1    R(1,2)                  1.3946         estimate D2E/DX2                !
 ! R2    R(1,5)                  1.395          estimate D2E/DX2                !
 ! R3    R(1,7)                  1.0824         estimate D2E/DX2                !
 ! R4    R(2,3)                  1.3977         estimate D2E/DX2                !
 ! R5    R(2,11)                 1.0824         estimate D2E/DX2                !
 ! R6    R(3,4)                  1.409          estimate D2E/DX2                !
 ! R7    R(3,10)                 1.0834         estimate D2E/DX2                !
 ! R8    R(4,6)                  1.4111         estimate D2E/DX2                !
 ! R9    R(4,12)                 1.4937         estimate D2E/DX2                !
 ! R10   R(5,6)                  1.3988         estimate D2E/DX2                !
 ! R11   R(5,8)                  1.0825         estimate D2E/DX2                !
 ! R12   R(6,9)                  1.0734         estimate D2E/DX2                !
 ! R13   R(12,13)                1.3555         estimate D2E/DX2                !
 ! R14   R(12,14)                1.08           estimate D2E/DX2                !
 ! R15   R(13,15)                1.5028         estimate D2E/DX2                !
 ! R16   R(13,16)                1.205          estimate D2E/DX2                !
 ! R17   R(15,17)                1.4155         estimate D2E/DX2                !
 ! R18   R(15,20)                1.4095         estimate D2E/DX2                !
 ! R19   R(16,27)                1.1043         estimate D2E/DX2                !
 ! R20   R(17,18)                1.3987         estimate D2E/DX2                !
 ! R21   R(17,19)                1.0776         estimate D2E/DX2                !
 ! R22   R(18,21)                1.3942         estimate D2E/DX2                !
 ! R23   R(18,22)                1.0826         estimate D2E/DX2                !
 ! R24   R(20,23)                1.3977         estimate D2E/DX2                !
 ! R25   R(20,24)                1.0801         estimate D2E/DX2                !
 ! R26   R(21,23)                1.3938         estimate D2E/DX2                !
 ! R27   R(21,26)                1.0824         estimate D2E/DX2                !
 ! R28   R(23,25)                1.0825         estimate D2E/DX2                !
 ! R29   R(27,28)                1.318          estimate D2E/DX2                !
 ! R30   R(28,29)                0.9904         estimate D2E/DX2                !
 ! A1    A(2,1,5)              119.8751         estimate D2E/DX2                !
 ! A2    A(2,1,7)              120.0603         estimate D2E/DX2                !
 ! A3    A(5,1,7)              120.0642         estimate D2E/DX2                !
 ! A4    A(1,2,3)              120.0932         estimate D2E/DX2                !
 ! A5    A(1,2,11)             119.9283         estimate D2E/DX2                !
 ! A6    A(3,2,11)             119.9784         estimate D2E/DX2                !
 ! A7    A(2,3,4)              120.9007         estimate D2E/DX2                !
 ! A8    A(2,3,10)             118.5289         estimate D2E/DX2                !
 ! A9    A(4,3,10)             120.5701         estimate D2E/DX2                !
 ! A10   A(3,4,6)              118.2476         estimate D2E/DX2                !
 ! A11   A(3,4,12)             117.7448         estimate D2E/DX2                !
 ! A12   A(6,4,12)             124.0039         estimate D2E/DX2                !
 ! A13   A(1,5,6)              120.2829         estimate D2E/DX2                !
 ! A14   A(1,5,8)              119.7977         estimate D2E/DX2                !
 ! A15   A(6,5,8)              119.9191         estimate D2E/DX2                !
 ! A16   A(4,6,5)              120.5983         estimate D2E/DX2                !
 ! A17   A(4,6,9)              122.266          estimate D2E/DX2                !
 ! A18   A(5,6,9)              117.1312         estimate D2E/DX2                !
 ! A19   A(4,12,13)            126.3443         estimate D2E/DX2                !
 ! A20   A(4,12,14)            114.4882         estimate D2E/DX2                !
 ! A21   A(13,12,14)           119.1675         estimate D2E/DX2                !
 ! A22   A(12,13,15)           123.4787         estimate D2E/DX2                !
 ! A23   A(12,13,16)           120.3972         estimate D2E/DX2                !
 ! A24   A(15,13,16)           116.1225         estimate D2E/DX2                !
 ! A25   A(13,15,17)           123.4672         estimate D2E/DX2                !
 ! A26   A(13,15,20)           118.5616         estimate D2E/DX2                !
 ! A27   A(17,15,20)           117.9708         estimate D2E/DX2                !
 ! A28   A(13,16,27)           133.9747         estimate D2E/DX2                !
 ! A29   A(15,17,18)           120.6725         estimate D2E/DX2                !
 ! A30   A(15,17,19)           122.5709         estimate D2E/DX2                !
 ! A31   A(18,17,19)           116.7563         estimate D2E/DX2                !
 ! A32   A(17,18,21)           120.3102         estimate D2E/DX2                !
 ! A33   A(17,18,22)           119.918          estimate D2E/DX2                !
 ! A34   A(21,18,22)           119.7718         estimate D2E/DX2                !
 ! A35   A(15,20,23)           121.0152         estimate D2E/DX2                !
 ! A36   A(15,20,24)           121.0338         estimate D2E/DX2                !
 ! A37   A(23,20,24)           117.9504         estimate D2E/DX2                !
 ! A38   A(18,21,23)           119.8626         estimate D2E/DX2                !
 ! A39   A(18,21,26)           120.0706         estimate D2E/DX2                !
 ! A40   A(23,21,26)           120.0668         estimate D2E/DX2                !
 ! A41   A(20,23,21)           120.1685         estimate D2E/DX2                !
 ! A42   A(20,23,25)           119.9524         estimate D2E/DX2                !
 ! A43   A(21,23,25)           119.879          estimate D2E/DX2                !
 ! A44   A(16,27,28)           105.4113         estimate D2E/DX2                !
 ! A45   A(27,28,29)           104.8394         estimate D2E/DX2                !
 ! D1    D(5,1,2,3)              0.1453         estimate D2E/DX2                !
 ! D2    D(5,1,2,11)          -179.8125         estimate D2E/DX2                !
 ! D3    D(7,1,2,3)            179.9182         estimate D2E/DX2                !
 ! D4    D(7,1,2,11)            -0.0396         estimate D2E/DX2                !
 ! D5    D(2,1,5,6)             -0.1981         estimate D2E/DX2                !
 ! D6    D(2,1,5,8)            179.6044         estimate D2E/DX2                !
 ! D7    D(7,1,5,6)           -179.971          estimate D2E/DX2                !
 ! D8    D(7,1,5,8)             -0.1685         estimate D2E/DX2                !
 ! D9    D(1,2,3,4)              0.2223         estimate D2E/DX2                !
 ! D10   D(1,2,3,10)          -179.9881         estimate D2E/DX2                !
 ! D11   D(11,2,3,4)          -179.8199         estimate D2E/DX2                !
 ! D12   D(11,2,3,10)           -0.0304         estimate D2E/DX2                !
 ! D13   D(2,3,4,6)             -0.5235         estimate D2E/DX2                !
 ! D14   D(2,3,4,12)          -179.8535         estimate D2E/DX2                !
 ! D15   D(10,3,4,6)           179.6912         estimate D2E/DX2                !
 ! D16   D(10,3,4,12)            0.3613         estimate D2E/DX2                !
 ! D17   D(3,4,6,5)              0.4693         estimate D2E/DX2                !
 ! D18   D(3,4,6,9)           -178.7365         estimate D2E/DX2                !
 ! D19   D(12,4,6,5)           179.7539         estimate D2E/DX2                !
 ! D20   D(12,4,6,9)             0.5482         estimate D2E/DX2                !
 ! D21   D(3,4,12,13)         -174.2782         estimate D2E/DX2                !
 ! D22   D(3,4,12,14)            5.8088         estimate D2E/DX2                !
 ! D23   D(6,4,12,13)            6.4338         estimate D2E/DX2                !
 ! D24   D(6,4,12,14)         -173.4792         estimate D2E/DX2                !
 ! D25   D(1,5,6,4)             -0.1152         estimate D2E/DX2                !
 ! D26   D(1,5,6,9)            179.1302         estimate D2E/DX2                !
 ! D27   D(8,5,6,4)           -179.9175         estimate D2E/DX2                !
 ! D28   D(8,5,6,9)             -0.6721         estimate D2E/DX2                !
 ! D29   D(4,12,13,15)        -178.8632         estimate D2E/DX2                !
 ! D30   D(4,12,13,16)           1.6288         estimate D2E/DX2                !
 ! D31   D(14,12,13,15)          1.0462         estimate D2E/DX2                !
 ! D32   D(14,12,13,16)       -178.4619         estimate D2E/DX2                !
 ! D33   D(12,13,15,17)         -2.7588         estimate D2E/DX2                !
 ! D34   D(12,13,15,20)        177.0135         estimate D2E/DX2                !
 ! D35   D(16,13,15,17)        176.7686         estimate D2E/DX2                !
 ! D36   D(16,13,15,20)         -3.4591         estimate D2E/DX2                !
 ! D37   D(12,13,16,27)        101.4448         estimate D2E/DX2                !
 ! D38   D(15,13,16,27)        -78.0982         estimate D2E/DX2                !
 ! D39   D(13,15,17,18)        179.9304         estimate D2E/DX2                !
 ! D40   D(13,15,17,19)         -0.2462         estimate D2E/DX2                !
 ! D41   D(20,15,17,18)          0.1568         estimate D2E/DX2                !
 ! D42   D(20,15,17,19)        179.9803         estimate D2E/DX2                !
 ! D43   D(13,15,20,23)       -179.9153         estimate D2E/DX2                !
 ! D44   D(13,15,20,24)         -0.1966         estimate D2E/DX2                !
 ! D45   D(17,15,20,23)         -0.1303         estimate D2E/DX2                !
 ! D46   D(17,15,20,24)        179.5883         estimate D2E/DX2                !
 ! D47   D(13,16,27,28)        169.0787         estimate D2E/DX2                !
 ! D48   D(15,17,18,21)         -0.0783         estimate D2E/DX2                !
 ! D49   D(15,17,18,22)        179.9181         estimate D2E/DX2                !
 ! D50   D(19,17,18,21)       -179.9117         estimate D2E/DX2                !
 ! D51   D(19,17,18,22)          0.0847         estimate D2E/DX2                !
 ! D52   D(17,18,21,23)         -0.0314         estimate D2E/DX2                !
 ! D53   D(17,18,21,26)       -179.9731         estimate D2E/DX2                !
 ! D54   D(22,18,21,23)        179.9722         estimate D2E/DX2                !
 ! D55   D(22,18,21,26)          0.0305         estimate D2E/DX2                !
 ! D56   D(15,20,23,21)          0.0246         estimate D2E/DX2                !
 ! D57   D(15,20,23,25)        179.9609         estimate D2E/DX2                !
 ! D58   D(24,20,23,21)       -179.7024         estimate D2E/DX2                !
 ! D59   D(24,20,23,25)          0.2338         estimate D2E/DX2                !
 ! D60   D(18,21,23,20)          0.0583         estimate D2E/DX2                !
 ! D61   D(18,21,23,25)       -179.878          estimate D2E/DX2                !
 ! D62   D(26,21,23,20)        180.0            estimate D2E/DX2                !
 ! D63   D(26,21,23,25)          0.0637         estimate D2E/DX2                !
 ! D64   D(16,27,28,29)       -104.1658         estimate D2E/DX2                !
 --------------------------------------------------------------------------------
 Trust Radius=3.00D-01 FncErr=1.00D-07 GrdErr=1.00D-06 EigMax=2.50D+02 EigMin=1.00D-04
 Number of steps in this run=    149 maximum allowed number of steps=    174.
 Search for a saddle point of order  1.
 GradGradGradGradGradGradGradGradGradGradGradGradGradGradGradGradGradGrad

                          Input orientation:                          
 ---------------------------------------------------------------------
 Center     Atomic      Atomic             Coordinates (Angstroms)
 Number     Number       Type             X           Y           Z
 ---------------------------------------------------------------------
      1          6           0       -6.114300    1.074590   -0.210450
      2          6           0       -5.656690    1.984850   -1.162730
      3          6           0       -4.295490    2.292610   -1.240780
      4          6           0       -3.366380    1.690620   -0.369180
      5          6           0       -5.211230    0.473610    0.666640
      6          6           0       -3.847680    0.776940    0.592460
      7          1           0       -7.168660    0.837660   -0.149610
      8          1           0       -5.568670   -0.227940    1.409570
      9          1           0       -3.200070    0.296470    1.300960
     10          1           0       -3.967820    3.003290   -1.989950
     11          1           0       -6.357060    2.453970   -1.841720
     12          6           0       -1.929640    2.073310   -0.512280
     13          6           0       -0.882720    1.527320    0.153510
     14          1           0       -1.746070    2.865760   -1.222680
     15          6           0        0.539240    1.980310   -0.023200
     16          1           0       -1.058890    0.623300    0.930570
     17          6           0        0.930650    2.982450   -0.943090
     18          6           0        2.272380    3.360290   -1.058510
     19          1           0        0.227540    3.487300   -1.584950
     20          6           0        1.540230    1.382920    0.769200
     21          6           0        3.244970    2.753640   -0.264920
     22          1           0        2.558320    4.127220   -1.767040
     23          6           0        2.878840    1.766390    0.648370
     24          1           0        1.295980    0.618030    1.491560
     25          1           0        3.633480    1.296600    1.266060
     26          1           0        4.282070    3.049330   -0.357130
     27          8           0       -0.918070   -0.470740    0.878750
     28          8           0       -1.054870   -0.900540    2.117170
     29          1           0       -0.132420   -1.092290    2.422470
 ---------------------------------------------------------------------
                    Distance matrix (angstroms):
                    1          2          3          4          5
     1  C    0.000000
     2  C    1.394567   0.000000
     3  C    2.419343   1.397739   0.000000
     4  C    2.820594   2.441682   1.409015   0.000000
     5  C    1.394991   2.414306   2.790267   2.440801   0.000000
     6  C    2.422979   2.795041   2.420446   1.411103   1.398850
     7  H    1.082364   2.151397   3.400388   3.902958   2.151820
     8  H    2.149130   3.394247   3.872792   3.419781   1.082534
     9  H    3.373806   3.867218   3.412472   2.181898   2.116248
    10  H    3.390263   2.138643   1.083369   2.170652   3.873347
    11  H    2.150038   1.082414   2.153424   3.419831   3.395088
    12  C    4.312763   3.784417   2.485166   1.493704   3.836369
    13  C    5.263731   4.973189   3.765198   2.543313   4.484374
    14  H    4.828492   4.009058   2.613115   2.175964   4.615111
    15  C    6.717513   6.299849   4.995463   3.931601   5.984474
    16  H    5.202188   5.232159   4.239922   2.855351   4.163411
    17  C    7.335394   6.666070   5.279871   4.523568   6.827020
    18  C    8.733844   8.048158   6.656582   5.921029   8.204479
    19  H    6.923103   6.087675   4.690793   4.197906   6.613033
    20  C    7.723122   7.475984   6.238845   5.046326   6.813191
    21  C    9.508844   8.979791   7.617308   6.697076   8.807591
    22  H    9.325013   8.511247   7.114595   6.556913   8.923989
    23  C    9.060504   8.728292   7.437527   6.328027   8.192731
    24  H    7.616924   7.566576   6.444722   5.133264   6.560879
    25  H    9.861470   9.627044   8.375252   7.199118   8.903118
    26  H   10.583271  10.028014   8.656096   7.768206   9.889650
    27  O    5.529485   5.714200   4.851338   3.496145   4.400910
    28  O    5.909043   6.345074   5.654525   4.270729   4.611687
    29  H    6.885530   7.269113   6.496776   5.098666   5.597258
                    6          7          8          9         10
     6  C    0.000000
     7  H    3.403419   0.000000
     8  H    2.153894   2.475180   0.000000
     9  H    1.073416   4.259900   2.428388   0.000000
    10  H    3.411731   4.280442   4.955835   4.329712   0.000000
    11  H    3.877454   2.476770   4.287783   4.949528   2.456052
    12  C    2.565132   5.394969   4.715061   2.838836   2.683757
    13  C    3.089779   6.330920   5.159143   2.863869   4.036180
    14  H    3.474862   5.888052   5.577812   3.883829   2.354526
    15  C    4.590447   7.793161   6.650997   4.309426   5.022767
    16  H    2.813410   6.208223   4.614344   2.197421   4.759797
    17  C    5.482210   8.415970   7.621206   5.414157   5.009128
    18  C    6.845037   9.814428   8.969330   6.700881   6.319424
    19  H    5.356733   7.986524   7.507743   5.500762   4.242562
    20  C    5.424760   8.774183   7.317199   4.892196   6.370017
    21  C    7.412700  10.589049   9.453782   7.073062   7.420404
    22  H    7.604502  10.394779   9.752243   7.566130   6.625965
    23  C    6.799133  10.121836   8.713048   6.288059   7.440928
    24  H    5.224067   8.625069   6.917066   4.511562   6.746700
    25  H    7.529378  10.904172   9.328686   6.906438   8.443587
    26  H    8.494605  11.664209  10.530850   8.143090   8.410048
    27  O    3.197074   6.468331   4.687089   2.444258   5.440524
    28  O    3.597008   6.748189   4.618168   2.588613   6.371311
    29  H    4.543800   7.736212   5.596953   3.549213   7.138173
                   11         12         13         14         15
    11  H    0.000000
    12  C    4.638358   0.000000
    13  C    5.899832   1.355516   0.000000
    14  H    4.670547   1.079974   2.104921   0.000000
    15  C    7.147749   2.518574   1.502796   2.728629   0.000000
    16  H    6.253603   2.223185   1.205035   3.183917   2.303296
    17  C    7.361898   3.032061   2.570651   2.693811   1.415515
    18  C    8.712179   4.428505   3.844922   4.052092   2.445401
    19  H    6.670132   2.793459   2.845425   2.100640   2.192542
    20  C    8.386372   3.762822   2.504119   4.119001   1.409522
    21  C    9.735249   5.225000   4.326288   5.083341   2.824437
    22  H    9.071347   5.092618   4.721096   4.518338   3.424454
    23  C    9.590368   4.956086   3.801496   5.108741   2.443460
    24  H    8.546956   4.066674   2.713654   4.655476   2.173237
    25  H   10.526571   5.891865   4.656937   6.131529   3.421107
    26  H   10.758696   6.289835   5.408542   6.092729   3.906800
    27  O    6.748148   3.070900   2.125904   4.029122   2.990805
    28  O    7.418812   4.064851   3.127315   5.081080   3.927043
    29  H    8.336991   4.675872   3.545911   5.617575   3.984131
                   16         17         18         19         20
    16  H    0.000000
    17  C    3.610327   0.000000
    18  C    4.748148   1.398687   0.000000
    19  H    4.023088   1.077600   2.115335   0.000000
    20  C    2.712653   2.421161   2.790441   3.419590   0.000000
    21  C    4.948814   2.422467   1.394181   3.374258   2.419590
    22  H    5.713035   2.153765   1.082570   2.423879   3.873010
    23  C    4.109989   2.794099   2.412830   3.870225   1.397686
    24  H    2.420775   3.413425   3.869910   4.340413   1.080055
    25  H    4.752286   3.876561   3.393381   4.952560   2.153141
    26  H    6.005801   3.402916   2.151159   4.258940   3.400475
    27  O    1.104282   4.319883   5.348714   4.800867   3.080795
    28  O    1.931353   5.327766   6.269785   5.882466   3.710223
    29  H    2.455068   5.390790   6.142129   6.096034   3.414341
                   21         22         23         24         25
    21  C    0.000000
    22  H    2.148156   0.000000
    23  C    1.393848   3.392706   0.000000
    24  H    3.382989   4.952413   2.129588   0.000000
    25  H    2.148908   4.285799   1.082463   2.444425   0.000000
    26  H    1.082364   2.474067   2.150818   4.271488   2.475374
    27  O    5.388461   6.342454   4.412975   2.542238   4.897970
    28  O    6.125031   7.308940   4.974330   2.867741   5.247136
    29  H    5.781004   7.213554   4.515215   2.414977   4.607177
                   26         27         28         29
    26  H    0.000000
    27  O    6.399980   0.000000
    28  O    7.085659   1.318001   0.000000
    29  H    6.660849   1.840283   0.990399   0.000000
 Stoichiometry    C14H13O2(2)
 Framework group  C1[X(C14H13O2)]
 Deg. of freedom    81
 Full point group                 C1      NOp   1
 Largest Abelian subgroup         C1      NOp   1
 Largest concise Abelian subgroup C1      NOp   1
                         Standard orientation:                         
 ---------------------------------------------------------------------
 Center     Atomic      Atomic             Coordinates (Angstroms)
 Number     Number       Type             X           Y           Z
 ---------------------------------------------------------------------
      1          6           0       -4.781310   -0.284070   -0.072742
      2          6           0       -4.228715   -1.549965    0.119524
      3          6           0       -2.840703   -1.713942    0.133984
      4          6           0       -1.980029   -0.611881   -0.039296
      5          6           0       -3.946115    0.818511   -0.253752
      6          6           0       -2.556284    0.660600   -0.239135
      7          1           0       -5.856224   -0.157907   -0.085165
      8          1           0       -4.376458    1.799577   -0.409302
      9          1           0       -1.961979    1.540304   -0.397700
     10          1           0       -2.438736   -2.708564    0.285105
     11          1           0       -4.875987   -2.406557    0.257028
     12          6           0       -0.508664   -0.868086   -0.014915
     13          6           0        0.470577    0.068369   -0.054443
     14          1           0       -0.236858   -1.911941    0.038286
     15          6           0        1.936139   -0.264065   -0.051169
     16          1           0        0.192465    1.240446   -0.086064
     17          6           0        2.436908   -1.584151    0.050262
     18          6           0        3.814337   -1.827043    0.046089
     19          1           0        1.792949   -2.443874    0.136365
     20          6           0        2.866357    0.789398   -0.159162
     21          6           0        4.715188   -0.768298   -0.060055
     22          1           0        4.183978   -2.841437    0.125648
     23          6           0        4.241327    0.538467   -0.163175
     24          1           0        2.538660    1.814881   -0.245879
     25          1           0        4.940487    1.360523   -0.247591
     26          1           0        5.780303   -0.960734   -0.063331
     27          8           0        0.178166    2.045744    0.669403
     28          8           0        0.018101    3.162488   -0.012057
     29          1           0        0.913189    3.586362   -0.018258
 ---------------------------------------------------------------------
 Rotational constants (GHZ):           1.0622229           0.2576851           0.2091800
 Standard basis: 6-311+G(2df,2p) (5D, 7F)
 There are   741 symmetry adapted cartesian basis functions of A   symmetry.
 There are   661 symmetry adapted basis functions of A   symmetry.
   661 basis functions,   975 primitive gaussians,   741 cartesian basis functions
    57 alpha electrons       56 beta electrons
       nuclear repulsion energy       966.3004517441 Hartrees.
 NAtoms=   29 NActive=   29 NUniq=   29 SFac= 1.00D+00 NAtFMM=   60 NAOKFM=F Big=F
 Integral buffers will be    131072 words long.
 Raffenetti 2 integral format.
 Two-electron integral symmetry is turned on.
 One-electron integrals computed using PRISM.
 NBasis=   661 RedAO= T EigKep=  2.05D-06  NBF=   661
 NBsUse=   657 1.00D-06 EigRej=  9.20D-07 NBFU=   657
 ExpMin= 4.38D-02 ExpMax= 8.59D+03 ExpMxC= 1.30D+03 IAcc=3 IRadAn=         5 AccDes= 0.00D+00
 Harris functional with IExCor= 1009 and IRadAn=       5 diagonalized for initial guess.
 HarFok:  IExCor= 1009 AccDes= 0.00D+00 IRadAn=         5 IDoV= 1 UseB2=F ITyADJ=14
 ICtDFT=  3500011 ScaDFX=  1.000000  1.000000  1.000000  1.000000
 FoFCou: FMM=F IPFlag=           0 FMFlag=      100000 FMFlg1=           0
         NFxFlg=           0 DoJE=T BraDBF=F KetDBF=T FulRan=T
         wScrn=  0.000000 ICntrl=       500 IOpCl=  0 I1Cent=   200000004 NGrid=           0
         NMat0=    1 NMatS0=      1 NMatT0=    0 NMatD0=    1 NMtDS0=    0 NMtDT0=    0
 Petite list used in FoFCou.
 Initial guess <Sx>= 0.0000 <Sy>= 0.0000 <Sz>= 0.5000 <S**2>= 0.7500 S= 0.5000
 Requested convergence on RMS density matrix=1.00D-08 within 128 cycles.
 Requested convergence on MAX density matrix=1.00D-06.
 Requested convergence on             energy=1.00D-06.
 No special actions if energy rises.
 Restarting incremental Fock formation.
 SCF Done:  E(UM062X) =  -691.465720845     A.U. after   21 cycles
            NFock= 21  Conv=0.55D-08     -V/T= 2.0040
 <Sx>= 0.0000 <Sy>= 0.0000 <Sz>= 0.5000 <S**2>= 0.7607 S= 0.5054
 <L.S>= 0.000000000000E+00
 Annihilation of the first spin contaminant:
 S**2 before annihilation     0.7607,   after     0.7501

 **********************************************************************

            Population analysis using the SCF density.

 **********************************************************************

 Orbital symmetries:
 Alpha Orbitals:
       Occupied  (A) (A) (A) (A) (A) (A) (A) (A) (A) (A) (A) (A)
                 (A) (A) (A) (A) (A) (A) (A) (A) (A) (A) (A) (A)
                 (A) (A) (A) (A) (A) (A) (A) (A) (A) (A) (A) (A)
                 (A) (A) (A) (A) (A) (A) (A) (A) (A) (A) (A) (A)
                 (A) (A) (A) (A) (A) (A) (A) (A) (A)
       Virtual   (A) (A) (A) (A) (A) (A) (A) (A) (A) (A) (A) (A)
                 (A) (A) (A) (A) (A) (A) (A) (A) (A) (A) (A) (A)
                 (A) (A) (A) (A) (A) (A) (A) (A) (A) (A) (A) (A)
                 (A) (A) (A) (A) (A) (A) (A) (A) (A) (A) (A) (A)
                 (A) (A) (A) (A) (A) (A) (A) (A) (A) (A) (A) (A)
                 (A) (A) (A) (A) (A) (A) (A) (A) (A) (A) (A) (A)
                 (A) (A) (A) (A) (A) (A) (A) (A) (A) (A) (A) (A)
                 (A) (A) (A) (A) (A) (A) (A) (A) (A) (A) (A) (A)
                 (A) (A) (A) (A) (A) (A) (A) (A) (A) (A) (A) (A)
                 (A) (A) (A) (A) (A) (A) (A) (A) (A) (A) (A) (A)
                 (A) (A) (A) (A) (A) (A) (A) (A) (A) (A) (A) (A)
                 (A) (A) (A) (A) (A) (A) (A) (A) (A) (A) (A) (A)
                 (A) (A) (A) (A) (A) (A) (A) (A) (A) (A) (A) (A)
                 (A) (A) (A) (A) (A) (A) (A) (A) (A) (A) (A) (A)
                 (A) (A) (A) (A) (A) (A) (A) (A) (A) (A) (A) (A)
                 (A) (A) (A) (A) (A) (A) (A) (A) (A) (A) (A) (A)
                 (A) (A) (A) (A) (A) (A) (A) (A) (A) (A) (A) (A)
                 (A) (A) (A) (A) (A) (A) (A) (A) (A) (A) (A) (A)
                 (A) (A) (A) (A) (A) (A) (A) (A) (A) (A) (A) (A)
                 (A) (A) (A) (A) (A) (A) (A) (A) (A) (A) (A) (A)
                 (A) (A) (A) (A) (A) (A) (A) (A) (A) (A) (A) (A)
                 (A) (A) (A) (A) (A) (A) (A) (A) (A) (A) (A) (A)
                 (A) (A) (A) (A) (A) (A) (A) (A) (A) (A) (A) (A)
                 (A) (A) (A) (A) (A) (A) (A) (A) (A) (A) (A) (A)
                 (A) (A) (A) (A) (A) (A) (A) (A) (A) (A) (A) (A)
                 (A) (A) (A) (A) (A) (A) (A) (A) (A) (A) (A) (A)
                 (A) (A) (A) (A) (A) (A) (A) (A) (A) (A) (A) (A)
                 (A) (A) (A) (A) (A) (A) (A) (A) (A) (A) (A) (A)
                 (A) (A) (A) (A) (A) (A) (A) (A) (A) (A) (A) (A)
                 (A) (A) (A) (A) (A) (A) (A) (A) (A) (A) (A) (A)
                 (A) (A) (A) (A) (A) (A) (A) (A) (A) (A) (A) (A)
                 (A) (A) (A) (A) (A) (A) (A) (A) (A) (A) (A) (A)
                 (A) (A) (A) (A) (A) (A) (A) (A) (A) (A) (A) (A)
                 (A) (A) (A) (A) (A) (A) (A) (A) (A) (A) (A) (A)
                 (A) (A) (A) (A) (A) (A) (A) (A) (A) (A) (A) (A)
                 (A) (A) (A) (A) (A) (A) (A) (A) (A) (A) (A) (A)
                 (A) (A) (A) (A) (A) (A) (A) (A) (A) (A) (A) (A)
                 (A) (A) (A) (A) (A) (A) (A) (A) (A) (A) (A) (A)
                 (A) (A) (A) (A) (A) (A) (A) (A) (A) (A) (A) (A)
                 (A) (A) (A) (A) (A) (A) (A) (A) (A) (A) (A) (A)
                 (A) (A) (A) (A) (A) (A) (A) (A) (A) (A) (A) (A)
                 (A) (A) (A) (A) (A) (A) (A) (A) (A) (A) (A) (A)
                 (A) (A) (A) (A) (A) (A) (A) (A) (A) (A) (A) (A)
                 (A) (A) (A) (A) (A) (A) (A) (A) (A) (A) (A) (A)
                 (A) (A) (A) (A) (A) (A) (A) (A) (A) (A) (A) (A)
                 (A) (A) (A) (A) (A) (A) (A) (A) (A) (A) (A) (A)
                 (A) (A) (A) (A) (A) (A) (A) (A) (A) (A) (A) (A)
                 (A) (A) (A) (A) (A) (A) (A) (A) (A) (A) (A) (A)
                 (A) (A) (A) (A) (A) (A) (A) (A) (A) (A) (A) (A)
                 (A) (A) (A) (A) (A) (A) (A) (A) (A) (A) (A) (A)
 Beta  Orbitals:
       Occupied  (A) (A) (A) (A) (A) (A) (A) (A) (A) (A) (A) (A)
                 (A) (A) (A) (A) (A) (A) (A) (A) (A) (A) (A) (A)
                 (A) (A) (A) (A) (A) (A) (A) (A) (A) (A) (A) (A)
                 (A) (A) (A) (A) (A) (A) (A) (A) (A) (A) (A) (A)
                 (A) (A) (A) (A) (A) (A) (A) (A)
       Virtual   (A) (A) (A) (A) (A) (A) (A) (A) (A) (A) (A) (A)
                 (A) (A) (A) (A) (A) (A) (A) (A) (A) (A) (A) (A)
                 (A) (A) (A) (A) (A) (A) (A) (A) (A) (A) (A) (A)
                 (A) (A) (A) (A) (A) (A) (A) (A) (A) (A) (A) (A)
                 (A) (A) (A) (A) (A) (A) (A) (A) (A) (A) (A) (A)
                 (A) (A) (A) (A) (A) (A) (A) (A) (A) (A) (A) (A)
                 (A) (A) (A) (A) (A) (A) (A) (A) (A) (A) (A) (A)
                 (A) (A) (A) (A) (A) (A) (A) (A) (A) (A) (A) (A)
                 (A) (A) (A) (A) (A) (A) (A) (A) (A) (A) (A) (A)
                 (A) (A) (A) (A) (A) (A) (A) (A) (A) (A) (A) (A)
                 (A) (A) (A) (A) (A) (A) (A) (A) (A) (A) (A) (A)
                 (A) (A) (A) (A) (A) (A) (A) (A) (A) (A) (A) (A)
                 (A) (A) (A) (A) (A) (A) (A) (A) (A) (A) (A) (A)
                 (A) (A) (A) (A) (A) (A) (A) (A) (A) (A) (A) (A)
                 (A) (A) (A) (A) (A) (A) (A) (A) (A) (A) (A) (A)
                 (A) (A) (A) (A) (A) (A) (A) (A) (A) (A) (A) (A)
                 (A) (A) (A) (A) (A) (A) (A) (A) (A) (A) (A) (A)
                 (A) (A) (A) (A) (A) (A) (A) (A) (A) (A) (A) (A)
                 (A) (A) (A) (A) (A) (A) (A) (A) (A) (A) (A) (A)
                 (A) (A) (A) (A) (A) (A) (A) (A) (A) (A) (A) (A)
                 (A) (A) (A) (A) (A) (A) (A) (A) (A) (A) (A) (A)
                 (A) (A) (A) (A) (A) (A) (A) (A) (A) (A) (A) (A)
                 (A) (A) (A) (A) (A) (A) (A) (A) (A) (A) (A) (A)
                 (A) (A) (A) (A) (A) (A) (A) (A) (A) (A) (A) (A)
                 (A) (A) (A) (A) (A) (A) (A) (A) (A) (A) (A) (A)
                 (A) (A) (A) (A) (A) (A) (A) (A) (A) (A) (A) (A)
                 (A) (A) (A) (A) (A) (A) (A) (A) (A) (A) (A) (A)
                 (A) (A) (A) (A) (A) (A) (A) (A) (A) (A) (A) (A)
                 (A) (A) (A) (A) (A) (A) (A) (A) (A) (A) (A) (A)
                 (A) (A) (A) (A) (A) (A) (A) (A) (A) (A) (A) (A)
                 (A) (A) (A) (A) (A) (A) (A) (A) (A) (A) (A) (A)
                 (A) (A) (A) (A) (A) (A) (A) (A) (A) (A) (A) (A)
                 (A) (A) (A) (A) (A) (A) (A) (A) (A) (A) (A) (A)
                 (A) (A) (A) (A) (A) (A) (A) (A) (A) (A) (A) (A)
                 (A) (A) (A) (A) (A) (A) (A) (A) (A) (A) (A) (A)
                 (A) (A) (A) (A) (A) (A) (A) (A) (A) (A) (A) (A)
                 (A) (A) (A) (A) (A) (A) (A) (A) (A) (A) (A) (A)
                 (A) (A) (A) (A) (A) (A) (A) (A) (A) (A) (A) (A)
                 (A) (A) (A) (A) (A) (A) (A) (A) (A) (A) (A) (A)
                 (A) (A) (A) (A) (A) (A) (A) (A) (A) (A) (A) (A)
                 (A) (A) (A) (A) (A) (A) (A) (A) (A) (A) (A) (A)
                 (A) (A) (A) (A) (A) (A) (A) (A) (A) (A) (A) (A)
                 (A) (A) (A) (A) (A) (A) (A) (A) (A) (A) (A) (A)
                 (A) (A) (A) (A) (A) (A) (A) (A) (A) (A) (A) (A)
                 (A) (A) (A) (A) (A) (A) (A) (A) (A) (A) (A) (A)
                 (A) (A) (A) (A) (A) (A) (A) (A) (A) (A) (A) (A)
                 (A) (A) (A) (A) (A) (A) (A) (A) (A) (A) (A) (A)
                 (A) (A) (A) (A) (A) (A) (A) (A) (A) (A) (A) (A)
                 (A) (A) (A) (A) (A) (A) (A) (A) (A) (A) (A) (A)
                 (A) (A) (A) (A) (A) (A) (A) (A) (A) (A) (A) (A)
                 (A)
 The electronic state is 2-A.
 Alpha  occ. eigenvalues --  -19.71724 -19.70315 -10.57043 -10.56511 -10.56081
 Alpha  occ. eigenvalues --  -10.55861 -10.55379 -10.55259 -10.55067 -10.55004
 Alpha  occ. eigenvalues --  -10.54789 -10.54666 -10.54430 -10.54417 -10.54346
 Alpha  occ. eigenvalues --  -10.54276  -1.33854  -1.02051  -0.96933  -0.96235
 Alpha  occ. eigenvalues --   -0.90238  -0.85959  -0.85011  -0.84316  -0.81034
 Alpha  occ. eigenvalues --   -0.73425  -0.70207  -0.69346  -0.68444  -0.67139
 Alpha  occ. eigenvalues --   -0.63550  -0.62305  -0.59565  -0.57922  -0.56420
 Alpha  occ. eigenvalues --   -0.54473  -0.53756  -0.52468  -0.51097  -0.49865
 Alpha  occ. eigenvalues --   -0.49224  -0.48548  -0.47455  -0.45691  -0.44431
 Alpha  occ. eigenvalues --   -0.43644  -0.41742  -0.41116  -0.40524  -0.40265
 Alpha  occ. eigenvalues --   -0.38727  -0.38064  -0.32382  -0.31551  -0.30953
 Alpha  occ. eigenvalues --   -0.30815  -0.26409
 Alpha virt. eigenvalues --   -0.03713   0.00093   0.00872   0.01244   0.01582
 Alpha virt. eigenvalues --    0.01723   0.02482   0.02556   0.03227   0.04148
 Alpha virt. eigenvalues --    0.04525   0.05676   0.06087   0.06297   0.06595
 Alpha virt. eigenvalues --    0.07170   0.07892   0.08281   0.09000   0.09254
 Alpha virt. eigenvalues --    0.09688   0.09847   0.10041   0.11356   0.11898
 Alpha virt. eigenvalues --    0.12175   0.12823   0.13371   0.13805   0.13899
 Alpha virt. eigenvalues --    0.14343   0.14831   0.15526   0.15776   0.16070
 Alpha virt. eigenvalues --    0.16570   0.16788   0.17091   0.17811   0.18066
 Alpha virt. eigenvalues --    0.18165   0.18487   0.19600   0.19782   0.19990
 Alpha virt. eigenvalues --    0.20140   0.20848   0.21047   0.21272   0.21495
 Alpha virt. eigenvalues --    0.21587   0.22124   0.22435   0.22934   0.22968
 Alpha virt. eigenvalues --    0.23271   0.23550   0.24025   0.24213   0.24747
 Alpha virt. eigenvalues --    0.25054   0.25416   0.25934   0.26764   0.26972
 Alpha virt. eigenvalues --    0.27403   0.27900   0.28775   0.28942   0.29197
 Alpha virt. eigenvalues --    0.30407   0.30767   0.31385   0.32009   0.32848
 Alpha virt. eigenvalues --    0.33363   0.33741   0.34949   0.35195   0.35811
 Alpha virt. eigenvalues --    0.36125   0.36574   0.36876   0.38078   0.38466
 Alpha virt. eigenvalues --    0.39724   0.39980   0.40710   0.42573   0.43625
 Alpha virt. eigenvalues --    0.44683   0.45612   0.48930   0.49462   0.50662
 Alpha virt. eigenvalues --    0.50694   0.52027   0.53060   0.53956   0.54140
 Alpha virt. eigenvalues --    0.54780   0.55174   0.55444   0.55734   0.56111
 Alpha virt. eigenvalues --    0.56442   0.56531   0.57154   0.57542   0.57808
 Alpha virt. eigenvalues --    0.57890   0.58661   0.58857   0.59449   0.60176
 Alpha virt. eigenvalues --    0.60519   0.61229   0.63058   0.63462   0.63565
 Alpha virt. eigenvalues --    0.64183   0.64999   0.65457   0.65868   0.66335
 Alpha virt. eigenvalues --    0.66901   0.67134   0.67408   0.67661   0.68194
 Alpha virt. eigenvalues --    0.68490   0.68883   0.69144   0.69614   0.70758
 Alpha virt. eigenvalues --    0.71266   0.71554   0.72311   0.72462   0.72922
 Alpha virt. eigenvalues --    0.73095   0.73971   0.74301   0.74653   0.75469
 Alpha virt. eigenvalues --    0.75581   0.76201   0.76775   0.77492   0.78280
 Alpha virt. eigenvalues --    0.78786   0.79445   0.79764   0.80639   0.81007
 Alpha virt. eigenvalues --    0.81752   0.82562   0.82977   0.83843   0.84249
 Alpha virt. eigenvalues --    0.84956   0.85479   0.86076   0.86667   0.86865
 Alpha virt. eigenvalues --    0.87649   0.87888   0.88352   0.89543   0.90483
 Alpha virt. eigenvalues --    0.93076   0.95337   0.96454   0.97778   0.98401
 Alpha virt. eigenvalues --    0.98996   1.00340   1.01708   1.02428   1.02641
 Alpha virt. eigenvalues --    1.03399   1.03859   1.04695   1.05891   1.06791
 Alpha virt. eigenvalues --    1.07251   1.08635   1.09570   1.09622   1.10918
 Alpha virt. eigenvalues --    1.11098   1.11853   1.12488   1.12954   1.13669
 Alpha virt. eigenvalues --    1.13977   1.15017   1.15955   1.17010   1.17916
 Alpha virt. eigenvalues --    1.18451   1.18949   1.19288   1.19776   1.21365
 Alpha virt. eigenvalues --    1.21609   1.22555   1.23547   1.23672   1.24579
 Alpha virt. eigenvalues --    1.25870   1.26293   1.29138   1.30020   1.30571
 Alpha virt. eigenvalues --    1.31251   1.31714   1.32353   1.33424   1.34035
 Alpha virt. eigenvalues --    1.34378   1.35023   1.36225   1.36474   1.36993
 Alpha virt. eigenvalues --    1.37340   1.38290   1.39224   1.39843   1.40557
 Alpha virt. eigenvalues --    1.41590   1.42211   1.42685   1.43194   1.43864
 Alpha virt. eigenvalues --    1.44271   1.44975   1.45684   1.45902   1.47955
 Alpha virt. eigenvalues --    1.48414   1.48641   1.49244   1.49668   1.50277
 Alpha virt. eigenvalues --    1.51416   1.53550   1.56149   1.58386   1.59827
 Alpha virt. eigenvalues --    1.62743   1.63244   1.64237   1.66292   1.67773
 Alpha virt. eigenvalues --    1.69952   1.70702   1.71572   1.71733   1.73094
 Alpha virt. eigenvalues --    1.74164   1.74829   1.75384   1.76395   1.76680
 Alpha virt. eigenvalues --    1.77386   1.79919   1.81763   1.82279   1.83480
 Alpha virt. eigenvalues --    1.84385   1.88462   1.92804   1.95241   1.95958
 Alpha virt. eigenvalues --    1.99736   2.02503   2.02798   2.03251   2.03661
 Alpha virt. eigenvalues --    2.04850   2.09752   2.15720   2.18372   2.20161
 Alpha virt. eigenvalues --    2.23235   2.28457   2.32180   2.35768   2.36373
 Alpha virt. eigenvalues --    2.41628   2.48204   2.51626   2.54405   2.54947
 Alpha virt. eigenvalues --    2.55499   2.56728   2.57523   2.58955   2.60306
 Alpha virt. eigenvalues --    2.64219   2.65050   2.66859   2.67481   2.68548
 Alpha virt. eigenvalues --    2.68877   2.70937   2.71743   2.73435   2.74031
 Alpha virt. eigenvalues --    2.74329   2.75589   2.75905   2.76586   2.77121
 Alpha virt. eigenvalues --    2.77728   2.78180   2.78942   2.79994   2.80960
 Alpha virt. eigenvalues --    2.81346   2.81410   2.81963   2.82202   2.82932
 Alpha virt. eigenvalues --    2.83728   2.84735   2.85466   2.86065   2.86663
 Alpha virt. eigenvalues --    2.87039   2.87925   2.87978   2.88409   2.88869
 Alpha virt. eigenvalues --    2.89494   2.89589   2.89931   2.90307   2.90870
 Alpha virt. eigenvalues --    2.91976   2.92120   2.93064   2.93499   2.94173
 Alpha virt. eigenvalues --    2.95187   2.96308   2.96998   2.97548   2.98325
 Alpha virt. eigenvalues --    2.99110   3.00093   3.00744   3.02160   3.03571
 Alpha virt. eigenvalues --    3.08406   3.11026   3.11679   3.13171   3.13726
 Alpha virt. eigenvalues --    3.13941   3.14547   3.15055   3.15951   3.16014
 Alpha virt. eigenvalues --    3.16908   3.17252   3.17730   3.17945   3.18553
 Alpha virt. eigenvalues --    3.19305   3.19617   3.20171   3.20989   3.21673
 Alpha virt. eigenvalues --    3.22239   3.23394   3.23902   3.25980   3.26328
 Alpha virt. eigenvalues --    3.26964   3.28413   3.29347   3.30651   3.30867
 Alpha virt. eigenvalues --    3.32662   3.32776   3.33459   3.34388   3.35582
 Alpha virt. eigenvalues --    3.36059   3.36740   3.37289   3.37715   3.38937
 Alpha virt. eigenvalues --    3.39653   3.40534   3.41246   3.42272   3.43743
 Alpha virt. eigenvalues --    3.44016   3.44359   3.44485   3.45258   3.46173
 Alpha virt. eigenvalues --    3.47162   3.48397   3.49024   3.49464   3.50195
 Alpha virt. eigenvalues --    3.51604   3.53333   3.54109   3.55327   3.56446
 Alpha virt. eigenvalues --    3.58088   3.58679   3.60832   3.61728   3.61801
 Alpha virt. eigenvalues --    3.62952   3.63342   3.64963   3.66571   3.66861
 Alpha virt. eigenvalues --    3.69692   3.70880   3.71686   3.72715   3.73074
 Alpha virt. eigenvalues --    3.73637   3.75023   3.75908   3.76640   3.77721
 Alpha virt. eigenvalues --    3.78433   3.78622   3.80440   3.81227   3.82059
 Alpha virt. eigenvalues --    3.82600   3.82909   3.83563   3.84471   3.85398
 Alpha virt. eigenvalues --    3.86245   3.87910   3.88543   3.88822   3.90774
 Alpha virt. eigenvalues --    3.92133   3.93884   3.94536   3.94963   3.98605
 Alpha virt. eigenvalues --    4.00267   4.01070   4.03100   4.03929   4.04672
 Alpha virt. eigenvalues --    4.05967   4.07426   4.07888   4.08526   4.10443
 Alpha virt. eigenvalues --    4.10968   4.12621   4.13113   4.14165   4.15459
 Alpha virt. eigenvalues --    4.18679   4.19500   4.20249   4.21162   4.24131
 Alpha virt. eigenvalues --    4.25042   4.26226   4.28194   4.30748   4.31082
 Alpha virt. eigenvalues --    4.31851   4.32398   4.33854   4.34330   4.34885
 Alpha virt. eigenvalues --    4.35229   4.36041   4.36522   4.38037   4.39456
 Alpha virt. eigenvalues --    4.40128   4.40872   4.41902   4.42622   4.43175
 Alpha virt. eigenvalues --    4.44022   4.44946   4.45568   4.46319   4.47360
 Alpha virt. eigenvalues --    4.49413   4.50561   4.53461   4.54379   4.55567
 Alpha virt. eigenvalues --    4.56180   4.59822   4.61253   4.61503   4.61816
 Alpha virt. eigenvalues --    4.62915   4.64899   4.66443   4.67843   4.71089
 Alpha virt. eigenvalues --    4.71736   4.72216   4.73764   4.76459   4.77828
 Alpha virt. eigenvalues --    4.78826   4.82304   4.85443   4.89917   4.92340
 Alpha virt. eigenvalues --    4.93143   4.93684   4.99322   5.02985   5.04772
 Alpha virt. eigenvalues --    5.05578   5.05919   5.08542   5.10105   5.10669
 Alpha virt. eigenvalues --    5.12034   5.12793   5.14958   5.17030   5.17892
 Alpha virt. eigenvalues --    5.23861   5.26774   5.29655   5.31356   5.33745
 Alpha virt. eigenvalues --    5.34217   5.37359   5.38822   5.43397   5.45688
 Alpha virt. eigenvalues --    5.48529   5.52140   5.57345   5.59559   5.67796
 Alpha virt. eigenvalues --    5.68328   5.71354   5.73604   5.74325   5.75508
 Alpha virt. eigenvalues --    5.75991   5.77011   5.78830   5.97757   6.01711
 Alpha virt. eigenvalues --    6.15796   6.18439   6.32094   6.32977   6.45832
 Alpha virt. eigenvalues --    6.48061   6.65871   6.83139   6.89203   6.96329
 Alpha virt. eigenvalues --    6.97409   7.00395   7.03836   7.29322   7.35755
 Alpha virt. eigenvalues --    7.54086   7.62622   7.92992   7.95019  23.94416
 Alpha virt. eigenvalues --   23.95899  24.29168  24.48649  24.49437  24.51415
 Alpha virt. eigenvalues --   24.53849  24.67187  24.69713  24.72494  24.75194
 Alpha virt. eigenvalues --   24.86051  25.14314  25.16311  49.99647  50.06161
  Beta  occ. eigenvalues --  -19.71419 -19.69218 -10.57034 -10.56058 -10.55942
  Beta  occ. eigenvalues --  -10.55842 -10.55354 -10.55251 -10.55065 -10.55006
  Beta  occ. eigenvalues --  -10.54787 -10.54672 -10.54429 -10.54419 -10.54347
  Beta  occ. eigenvalues --  -10.54278  -1.31650  -0.99169  -0.96615  -0.96210
  Beta  occ. eigenvalues --   -0.89537  -0.85827  -0.84963  -0.84317  -0.80566
  Beta  occ. eigenvalues --   -0.72360  -0.69792  -0.69230  -0.67680  -0.66266
  Beta  occ. eigenvalues --   -0.62162  -0.61316  -0.59352  -0.56422  -0.54368
  Beta  occ. eigenvalues --   -0.53978  -0.53555  -0.52042  -0.50957  -0.49672
  Beta  occ. eigenvalues --   -0.49073  -0.48370  -0.47056  -0.45478  -0.44431
  Beta  occ. eigenvalues --   -0.42175  -0.41483  -0.40639  -0.39979  -0.38927
  Beta  occ. eigenvalues --   -0.37476  -0.36493  -0.32311  -0.31494  -0.30844
  Beta  occ. eigenvalues --   -0.26116
  Beta virt. eigenvalues --   -0.08181  -0.03285   0.00078   0.00874   0.01226
  Beta virt. eigenvalues --    0.01563   0.01718   0.02503   0.02578   0.03229
  Beta virt. eigenvalues --    0.04142   0.04500   0.05623   0.06100   0.06311
  Beta virt. eigenvalues --    0.06611   0.07169   0.07893   0.08285   0.08950
  Beta virt. eigenvalues --    0.09285   0.09721   0.09875   0.10058   0.11290
  Beta virt. eigenvalues --    0.11922   0.12170   0.12810   0.13387   0.13805
  Beta virt. eigenvalues --    0.13837   0.14383   0.14862   0.15513   0.15769
  Beta virt. eigenvalues --    0.16130   0.16614   0.16789   0.17117   0.17818
  Beta virt. eigenvalues --    0.18081   0.18188   0.18549   0.19665   0.19804
  Beta virt. eigenvalues --    0.20053   0.20092   0.20894   0.21176   0.21289
  Beta virt. eigenvalues --    0.21525   0.21797   0.22147   0.22606   0.22923
  Beta virt. eigenvalues --    0.23023   0.23314   0.23572   0.24079   0.24282
  Beta virt. eigenvalues --    0.24754   0.25197   0.25725   0.25955   0.26909
  Beta virt. eigenvalues --    0.27037   0.27497   0.27979   0.28722   0.28896
  Beta virt. eigenvalues --    0.29215   0.30310   0.30805   0.31383   0.32163
  Beta virt. eigenvalues --    0.32958   0.33582   0.33776   0.34972   0.35226
  Beta virt. eigenvalues --    0.35750   0.36123   0.36738   0.36906   0.38095
  Beta virt. eigenvalues --    0.38539   0.39581   0.40089   0.40652   0.42651
  Beta virt. eigenvalues --    0.43633   0.44844   0.45716   0.48950   0.49645
  Beta virt. eigenvalues --    0.50697   0.50731   0.52055   0.53131   0.54019
  Beta virt. eigenvalues --    0.54167   0.54761   0.55237   0.55537   0.55758
  Beta virt. eigenvalues --    0.56107   0.56478   0.56553   0.57237   0.57598
  Beta virt. eigenvalues --    0.57842   0.58074   0.58732   0.58981   0.59462
  Beta virt. eigenvalues --    0.60181   0.60628   0.61341   0.63097   0.63488
  Beta virt. eigenvalues --    0.63621   0.64273   0.65087   0.65524   0.65906
  Beta virt. eigenvalues --    0.66324   0.66927   0.67154   0.67396   0.67686
  Beta virt. eigenvalues --    0.68176   0.68499   0.68870   0.69146   0.69675
  Beta virt. eigenvalues --    0.70754   0.71273   0.71553   0.72336   0.72524
  Beta virt. eigenvalues --    0.72977   0.73283   0.74106   0.74311   0.74636
  Beta virt. eigenvalues --    0.75618   0.75738   0.76242   0.76793   0.77574
  Beta virt. eigenvalues --    0.78407   0.78841   0.79489   0.79959   0.80643
  Beta virt. eigenvalues --    0.81060   0.81929   0.82610   0.83074   0.83949
  Beta virt. eigenvalues --    0.84289   0.85040   0.85525   0.86229   0.86783
  Beta virt. eigenvalues --    0.87011   0.87980   0.88276   0.88534   0.89606
  Beta virt. eigenvalues --    0.90630   0.93067   0.95448   0.96613   0.97822
  Beta virt. eigenvalues --    0.98525   0.99029   1.00493   1.01734   1.02441
  Beta virt. eigenvalues --    1.02700   1.03505   1.03944   1.04774   1.05977
  Beta virt. eigenvalues --    1.06805   1.07257   1.08676   1.09552   1.09627
  Beta virt. eigenvalues --    1.10974   1.11231   1.11933   1.12591   1.13071
  Beta virt. eigenvalues --    1.13867   1.14071   1.15180   1.16021   1.17077
  Beta virt. eigenvalues --    1.18058   1.18485   1.19123   1.19344   1.19931
  Beta virt. eigenvalues --    1.21447   1.21640   1.22654   1.23657   1.23774
  Beta virt. eigenvalues --    1.24625   1.25939   1.26436   1.29211   1.30104
  Beta virt. eigenvalues --    1.30694   1.31389   1.31861   1.32374   1.33500
  Beta virt. eigenvalues --    1.34076   1.34527   1.35060   1.36227   1.36599
  Beta virt. eigenvalues --    1.37150   1.37367   1.38291   1.39269   1.39863
  Beta virt. eigenvalues --    1.40627   1.41554   1.42237   1.42708   1.43326
  Beta virt. eigenvalues --    1.43902   1.44371   1.45173   1.45809   1.45936
  Beta virt. eigenvalues --    1.47967   1.48422   1.48712   1.49245   1.49681
  Beta virt. eigenvalues --    1.50341   1.51385   1.53492   1.56328   1.58675
  Beta virt. eigenvalues --    1.59993   1.63102   1.63323   1.64320   1.66451
  Beta virt. eigenvalues --    1.68108   1.70229   1.70730   1.71566   1.72024
  Beta virt. eigenvalues --    1.73148   1.74340   1.74876   1.75447   1.76429
  Beta virt. eigenvalues --    1.76750   1.77434   1.79943   1.81919   1.82416
  Beta virt. eigenvalues --    1.83588   1.84474   1.88584   1.93053   1.95780
  Beta virt. eigenvalues --    1.96412   2.00593   2.02528   2.02900   2.03287
  Beta virt. eigenvalues --    2.03698   2.04966   2.10409   2.15886   2.18534
  Beta virt. eigenvalues --    2.20322   2.23378   2.28619   2.32229   2.35887
  Beta virt. eigenvalues --    2.37032   2.42395   2.48322   2.51648   2.54403
  Beta virt. eigenvalues --    2.54944   2.55438   2.56874   2.57642   2.58753
  Beta virt. eigenvalues --    2.60364   2.64399   2.65233   2.67063   2.67616
  Beta virt. eigenvalues --    2.68607   2.68945   2.70995   2.71847   2.73567
  Beta virt. eigenvalues --    2.74018   2.74402   2.75588   2.75874   2.76387
  Beta virt. eigenvalues --    2.77119   2.77752   2.78203   2.78926   2.79855
  Beta virt. eigenvalues --    2.81020   2.81352   2.81449   2.81946   2.82245
  Beta virt. eigenvalues --    2.83003   2.83746   2.84805   2.85533   2.86189
  Beta virt. eigenvalues --    2.86771   2.86956   2.87893   2.88067   2.88458
  Beta virt. eigenvalues --    2.88881   2.89535   2.89605   2.89900   2.90367
  Beta virt. eigenvalues --    2.91000   2.92133   2.92309   2.93122   2.93556
  Beta virt. eigenvalues --    2.94232   2.95295   2.96363   2.96960   2.97678
  Beta virt. eigenvalues --    2.98379   2.99433   3.00476   3.00982   3.02602
  Beta virt. eigenvalues --    3.03749   3.08710   3.11083   3.11893   3.13286
  Beta virt. eigenvalues --    3.13872   3.13992   3.14640   3.15148   3.15991
  Beta virt. eigenvalues --    3.16116   3.16934   3.17298   3.17791   3.18178
  Beta virt. eigenvalues --    3.18590   3.19311   3.19753   3.20209   3.21098
  Beta virt. eigenvalues --    3.21977   3.22585   3.23504   3.24014   3.26037
  Beta virt. eigenvalues --    3.26475   3.27073   3.28647   3.29473   3.30670
  Beta virt. eigenvalues --    3.31023   3.32711   3.32941   3.33538   3.34476
  Beta virt. eigenvalues --    3.35904   3.36339   3.37176   3.37335   3.38132
  Beta virt. eigenvalues --    3.39011   3.40145   3.41036   3.41681   3.42495
  Beta virt. eigenvalues --    3.43836   3.44100   3.44411   3.44551   3.45261
  Beta virt. eigenvalues --    3.46307   3.47292   3.48541   3.49003   3.50029
  Beta virt. eigenvalues --    3.50290   3.51748   3.53428   3.54130   3.55862
  Beta virt. eigenvalues --    3.56734   3.58129   3.58627   3.60949   3.61656
  Beta virt. eigenvalues --    3.62223   3.63140   3.63670   3.65621   3.66886
  Beta virt. eigenvalues --    3.67297   3.69968   3.71156   3.71860   3.72892
  Beta virt. eigenvalues --    3.73261   3.74000   3.75092   3.75974   3.76860
  Beta virt. eigenvalues --    3.77896   3.78631   3.79147   3.80553   3.81358
  Beta virt. eigenvalues --    3.82082   3.82676   3.82995   3.83779   3.84478
  Beta virt. eigenvalues --    3.85551   3.86942   3.87984   3.88784   3.89163
  Beta virt. eigenvalues --    3.91030   3.92181   3.93971   3.94852   3.95109
  Beta virt. eigenvalues --    3.98751   4.00403   4.01185   4.03152   4.04028
  Beta virt. eigenvalues --    4.04656   4.06044   4.07444   4.07901   4.08537
  Beta virt. eigenvalues --    4.10482   4.10990   4.12676   4.13302   4.14255
  Beta virt. eigenvalues --    4.15667   4.18572   4.19620   4.20290   4.21381
  Beta virt. eigenvalues --    4.24420   4.25097   4.26439   4.28505   4.30878
  Beta virt. eigenvalues --    4.31287   4.32235   4.32509   4.33806   4.34526
  Beta virt. eigenvalues --    4.34940   4.35329   4.36061   4.36529   4.38087
  Beta virt. eigenvalues --    4.39757   4.40202   4.40921   4.41992   4.42627
  Beta virt. eigenvalues --    4.43194   4.44021   4.44959   4.45547   4.46435
  Beta virt. eigenvalues --    4.47450   4.49482   4.50597   4.53585   4.54445
  Beta virt. eigenvalues --    4.55672   4.56298   4.60050   4.61435   4.61689
  Beta virt. eigenvalues --    4.62177   4.63051   4.65084   4.66525   4.68025
  Beta virt. eigenvalues --    4.71259   4.72025   4.72466   4.74004   4.76626
  Beta virt. eigenvalues --    4.77960   4.78990   4.82598   4.86084   4.90323
  Beta virt. eigenvalues --    4.92392   4.93142   4.94196   5.00046   5.03332
  Beta virt. eigenvalues --    5.05053   5.05718   5.06053   5.08638   5.10446
  Beta virt. eigenvalues --    5.11289   5.12367   5.12891   5.15207   5.17202
  Beta virt. eigenvalues --    5.18210   5.24915   5.27273   5.30232   5.32217
  Beta virt. eigenvalues --    5.34172   5.34543   5.37650   5.39387   5.43590
  Beta virt. eigenvalues --    5.46269   5.48643   5.52769   5.57717   5.59931
  Beta virt. eigenvalues --    5.67766   5.68384   5.71374   5.73642   5.74358
  Beta virt. eigenvalues --    5.75529   5.76017   5.77130   5.79024   5.98630
  Beta virt. eigenvalues --    6.02195   6.16067   6.18797   6.32889   6.33418
  Beta virt. eigenvalues --    6.45903   6.48088   6.67328   6.84833   6.89200
  Beta virt. eigenvalues --    6.97723   7.00697   7.01972   7.05908   7.29716
  Beta virt. eigenvalues --    7.39284   7.54429   7.64938   7.94812   7.95321
  Beta virt. eigenvalues --   23.94421  23.95900  24.29578  24.48657  24.49446
  Beta virt. eigenvalues --   24.51416  24.53852  24.67240  24.69726  24.72510
  Beta virt. eigenvalues --   24.75189  24.86410  25.14322  25.16320  49.99364
  Beta virt. eigenvalues --   50.05669
          Condensed to atoms (all electrons):
               1          2          3          4          5          6
     1  C    5.684493   0.502679   0.264730  -0.596086   0.178599   0.377817
     2  C    0.502679   6.510767  -0.799414   0.148842  -0.208201   0.487828
     3  C    0.264730  -0.799414   9.319164  -0.476397  -0.032424  -1.869005
     4  C   -0.596086   0.148842  -0.476397   8.582558  -0.394568  -0.113582
     5  C    0.178599  -0.208201  -0.032424  -0.394568   7.727244  -1.797965
     6  C    0.377817   0.487828  -1.869005  -0.113582  -1.797965  10.393211
     7  H    0.339735   0.014242   0.001207   0.015990  -0.001592   0.003160
     8  H    0.034252  -0.002769  -0.004954   0.016015   0.374011  -0.031277
     9  H   -0.020659  -0.002627  -0.024442   0.041072  -0.051014   0.327073
    10  H   -0.014920  -0.044155   0.407413  -0.052260   0.000053  -0.049874
    11  H    0.039364   0.359838  -0.050134   0.037536   0.004486  -0.008032
    12  C   -0.312017  -0.319348  -0.402944   0.506932   0.175414  -0.102755
    13  C   -0.140611  -0.349787   0.193890  -0.874248   0.101710  -0.780869
    14  H    0.001237   0.015913   0.131217  -0.109056  -0.007071  -0.105785
    15  C   -0.069065  -0.041202  -0.541586  -0.737501   0.186995  -0.235944
    16  H   -0.002328   0.001484  -0.032647  -0.099711   0.040998   0.023073
    17  C    0.020632  -0.072227   0.258737  -0.644823  -0.129048  -0.239190
    18  C    0.000228   0.017173   0.035692   0.228993  -0.013149  -0.074599
    19  H   -0.000047  -0.001577  -0.002146   0.000647   0.000734   0.001259
    20  C   -0.017313   0.034999  -0.225706  -0.215547   0.124213   0.204079
    21  C    0.000027  -0.001536  -0.013552  -0.069985   0.000105   0.011622
    22  H    0.000000   0.000004   0.000002  -0.000308  -0.000009  -0.000061
    23  C   -0.000984  -0.001767   0.033284   0.008871   0.025092  -0.040469
    24  H   -0.000044   0.000082   0.000510   0.012933  -0.000188  -0.003549
    25  H    0.000001  -0.000001  -0.000018  -0.000354   0.000001   0.000143
    26  H    0.000000   0.000000   0.000028   0.000216  -0.000001  -0.000012
    27  O    0.000343  -0.001021   0.008358   0.083921  -0.077829   0.021846
    28  O    0.000374  -0.000683  -0.002108  -0.034152   0.014740   0.047951
    29  H    0.000408   0.000413  -0.000844   0.000627   0.008818   0.004029
               7          8          9         10         11         12
     1  C    0.339735   0.034252  -0.020659  -0.014920   0.039364  -0.312017
     2  C    0.014242  -0.002769  -0.002627  -0.044155   0.359838  -0.319348
     3  C    0.001207  -0.004954  -0.024442   0.407413  -0.050134  -0.402944
     4  C    0.015990   0.016015   0.041072  -0.052260   0.037536   0.506932
     5  C   -0.001592   0.374011  -0.051014   0.000053   0.004486   0.175414
     6  C    0.003160  -0.031277   0.327073  -0.049874  -0.008032  -0.102755
     7  H    0.484167  -0.006541  -0.000088  -0.000094  -0.006546   0.004653
     8  H   -0.006541   0.482548  -0.005863   0.000046  -0.000083  -0.002302
     9  H   -0.000088  -0.005863   0.440816  -0.000063   0.000049   0.027300
    10  H   -0.000094   0.000046  -0.000063   0.483177  -0.006677   0.095107
    11  H   -0.006546  -0.000083   0.000049  -0.006677   0.486163  -0.005654
    12  C    0.004653  -0.002302   0.027300   0.095107  -0.005654   6.968052
    13  C    0.002189  -0.002194   0.045842   0.021478   0.001765   0.998448
    14  H   -0.000002   0.000008   0.000046   0.002565  -0.000006   0.361873
    15  C    0.000192  -0.000333   0.011349   0.009908  -0.000324  -0.845759
    16  H   -0.000001   0.000012   0.008848   0.000052   0.000000  -0.072910
    17  C   -0.000040  -0.000011   0.000543  -0.002785   0.000164  -0.982707
    18  C   -0.000002  -0.000009   0.000581   0.000002   0.000001   0.126734
    19  H    0.000000   0.000000   0.000010   0.000022   0.000000   0.032225
    20  C    0.000030  -0.000114   0.002826   0.000237  -0.000019   0.227470
    21  C    0.000000   0.000000  -0.000021  -0.000027   0.000001  -0.197871
    22  H    0.000000   0.000000  -0.000000   0.000000   0.000000  -0.001123
    23  C    0.000001  -0.000001  -0.000376   0.000086  -0.000001  -0.030874
    24  H   -0.000000   0.000000  -0.000048  -0.000000   0.000000   0.020457
    25  H   -0.000000   0.000000   0.000000   0.000000   0.000000   0.001221
    26  H   -0.000000   0.000000   0.000000  -0.000000  -0.000000   0.003057
    27  O    0.000003  -0.000066  -0.010365  -0.000016  -0.000001   0.052936
    28  O   -0.000001   0.000078   0.004819  -0.000005  -0.000000  -0.000156
    29  H    0.000000  -0.000003  -0.000302  -0.000000  -0.000000   0.020581
              13         14         15         16         17         18
     1  C   -0.140611   0.001237  -0.069065  -0.002328   0.020632   0.000228
     2  C   -0.349787   0.015913  -0.041202   0.001484  -0.072227   0.017173
     3  C    0.193890   0.131217  -0.541586  -0.032647   0.258737   0.035692
     4  C   -0.874248  -0.109056  -0.737501  -0.099711  -0.644823   0.228993
     5  C    0.101710  -0.007071   0.186995   0.040998  -0.129048  -0.013149
     6  C   -0.780869  -0.105785  -0.235944   0.023073  -0.239190  -0.074599
     7  H    0.002189  -0.000002   0.000192  -0.000001  -0.000040  -0.000002
     8  H   -0.002194   0.000008  -0.000333   0.000012  -0.000011  -0.000009
     9  H    0.045842   0.000046   0.011349   0.008848   0.000543   0.000581
    10  H    0.021478   0.002565   0.009908   0.000052  -0.002785   0.000002
    11  H    0.001765  -0.000006  -0.000324   0.000000   0.000164   0.000001
    12  C    0.998448   0.361873  -0.845759  -0.072910  -0.982707   0.126734
    13  C    7.353939   0.046290   0.191041   0.297540   0.142081   0.110652
    14  H    0.046290   0.456882  -0.068052   0.003656   0.087381   0.029977
    15  C    0.191041  -0.068052   8.928656   0.042124  -0.413427  -0.301936
    16  H    0.297540   0.003656   0.042124   0.500095  -0.048660  -0.005247
    17  C    0.142081   0.087381  -0.413427  -0.048660  12.801123  -2.048137
    18  C    0.110652   0.029977  -0.301936  -0.005247  -2.048137   7.575530
    19  H    0.042699   0.002022   0.014972   0.000026   0.399891  -0.079972
    20  C   -0.501557  -0.043266   0.082048   0.083268  -2.807245   0.461839
    21  C   -0.308226   0.000775  -0.541010   0.003139   0.764331   0.268658
    22  H   -0.001319   0.000040   0.027243   0.000007  -0.036554   0.370435
    23  C   -0.041381  -0.000747  -0.586282   0.011240  -0.412883  -0.327071
    24  H    0.120076   0.000058  -0.076565   0.004120  -0.067068   0.001981
    25  H   -0.009204   0.000000   0.039394   0.000019   0.002986  -0.001869
    26  H    0.006029  -0.000001   0.020249  -0.000002   0.001081   0.012143
    27  O   -0.269837  -0.002692   0.040642   0.047798   0.068192   0.012678
    28  O    0.022902   0.000108  -0.126123   0.016927  -0.019364  -0.008356
    29  H    0.027602  -0.000005  -0.104527  -0.000038  -0.020913   0.000423
              19         20         21         22         23         24
     1  C   -0.000047  -0.017313   0.000027   0.000000  -0.000984  -0.000044
     2  C   -0.001577   0.034999  -0.001536   0.000004  -0.001767   0.000082
     3  C   -0.002146  -0.225706  -0.013552   0.000002   0.033284   0.000510
     4  C    0.000647  -0.215547  -0.069985  -0.000308   0.008871   0.012933
     5  C    0.000734   0.124213   0.000105  -0.000009   0.025092  -0.000188
     6  C    0.001259   0.204079   0.011622  -0.000061  -0.040469  -0.003549
     7  H    0.000000   0.000030   0.000000   0.000000   0.000001  -0.000000
     8  H    0.000000  -0.000114   0.000000   0.000000  -0.000001   0.000000
     9  H    0.000010   0.002826  -0.000021  -0.000000  -0.000376  -0.000048
    10  H    0.000022   0.000237  -0.000027   0.000000   0.000086  -0.000000
    11  H    0.000000  -0.000019   0.000001   0.000000  -0.000001   0.000000
    12  C    0.032225   0.227470  -0.197871  -0.001123  -0.030874   0.020457
    13  C    0.042699  -0.501557  -0.308226  -0.001319  -0.041381   0.120076
    14  H    0.002022  -0.043266   0.000775   0.000040  -0.000747   0.000058
    15  C    0.014972   0.082048  -0.541010   0.027243  -0.586282  -0.076565
    16  H    0.000026   0.083268   0.003139   0.000007   0.011240   0.004120
    17  C    0.399891  -2.807245   0.764331  -0.036554  -0.412883  -0.067068
    18  C   -0.079972   0.461839   0.268658   0.370435  -0.327071   0.001981
    19  H    0.470564  -0.030510  -0.012366  -0.006234  -0.003254  -0.000090
    20  C   -0.030510   9.371805  -0.124411  -0.011578  -0.932965   0.397276
    21  C   -0.012366  -0.124411   5.654484   0.027973   0.488905  -0.021520
    22  H   -0.006234  -0.011578   0.027973   0.483058   0.004619   0.000057
    23  C   -0.003254  -0.932965   0.488905   0.004619   7.668606  -0.022527
    24  H   -0.000090   0.397276  -0.021520   0.000057  -0.022527   0.505554
    25  H    0.000044  -0.057890   0.043134  -0.000091   0.361728  -0.007372
    26  H   -0.000090  -0.003715   0.331043  -0.006508   0.009665  -0.000115
    27  O   -0.000104  -0.136127  -0.005436  -0.000004  -0.013024  -0.006559
    28  O    0.000006   0.098406   0.004867   0.000001   0.050924   0.005428
    29  H   -0.000002   0.046097   0.000197  -0.000000   0.024809   0.002976
              25         26         27         28         29
     1  C    0.000001   0.000000   0.000343   0.000374   0.000408
     2  C   -0.000001   0.000000  -0.001021  -0.000683   0.000413
     3  C   -0.000018   0.000028   0.008358  -0.002108  -0.000844
     4  C   -0.000354   0.000216   0.083921  -0.034152   0.000627
     5  C    0.000001  -0.000001  -0.077829   0.014740   0.008818
     6  C    0.000143  -0.000012   0.021846   0.047951   0.004029
     7  H   -0.000000  -0.000000   0.000003  -0.000001   0.000000
     8  H    0.000000   0.000000  -0.000066   0.000078  -0.000003
     9  H    0.000000   0.000000  -0.010365   0.004819  -0.000302
    10  H    0.000000  -0.000000  -0.000016  -0.000005  -0.000000
    11  H    0.000000  -0.000000  -0.000001  -0.000000  -0.000000
    12  C    0.001221   0.003057   0.052936  -0.000156   0.020581
    13  C   -0.009204   0.006029  -0.269837   0.022902   0.027602
    14  H    0.000000  -0.000001  -0.002692   0.000108  -0.000005
    15  C    0.039394   0.020249   0.040642  -0.126123  -0.104527
    16  H    0.000019  -0.000002   0.047798   0.016927  -0.000038
    17  C    0.002986   0.001081   0.068192  -0.019364  -0.020913
    18  C   -0.001869   0.012143   0.012678  -0.008356   0.000423
    19  H    0.000044  -0.000090  -0.000104   0.000006  -0.000002
    20  C   -0.057890  -0.003715  -0.136127   0.098406   0.046097
    21  C    0.043134   0.331043  -0.005436   0.004867   0.000197
    22  H   -0.000091  -0.006508  -0.000004   0.000001  -0.000000
    23  C    0.361728   0.009665  -0.013024   0.050924   0.024809
    24  H   -0.007372  -0.000115  -0.006559   0.005428   0.002976
    25  H    0.487687  -0.006601   0.000006   0.000018  -0.000026
    26  H   -0.006601   0.483565   0.000003  -0.000002   0.000000
    27  O    0.000006   0.000003   8.306739  -0.035280  -0.049785
    28  O    0.000018  -0.000002  -0.035280   7.968795   0.190637
    29  H   -0.000026   0.000000  -0.049785   0.190637   0.583388
          Atomic-Atomic Spin Densities.
               1          2          3          4          5          6
     1  C   -0.002844   0.000107   0.019955  -0.028451   0.007675  -0.016038
     2  C    0.000107   0.028485   0.023016  -0.043555   0.005229  -0.018755
     3  C    0.019955   0.023016   0.335464  -0.190152  -0.011612  -0.191593
     4  C   -0.028451  -0.043555  -0.190152   0.143459   0.001895   0.017233
     5  C    0.007675   0.005229  -0.011612   0.001895   0.001497   0.026971
     6  C   -0.016038  -0.018755  -0.191593   0.017233   0.026971   0.090012
     7  H    0.000283   0.000359  -0.000288  -0.000178  -0.000129  -0.000081
     8  H    0.000085  -0.000375   0.000950   0.000346   0.001078  -0.001919
     9  H   -0.000388   0.000102  -0.000257   0.006627  -0.006520   0.002911
    10  H   -0.000274  -0.002857   0.003389   0.002881  -0.000144   0.000468
    11  H    0.000920   0.000336   0.000060  -0.001155   0.000142  -0.000278
    12  C    0.000559  -0.004064  -0.060339  -0.039448  -0.004430   0.069937
    13  C    0.007050   0.012028   0.104620   0.133532  -0.024959  -0.053501
    14  H    0.001312   0.003062   0.045905  -0.026924  -0.001030  -0.014401
    15  C    0.001072  -0.000907  -0.036826   0.082722  -0.004347   0.038145
    16  H    0.000555   0.000033   0.014844   0.021533  -0.005596  -0.008067
    17  C    0.001030   0.000752   0.029616   0.046575  -0.003675  -0.008546
    18  C   -0.000148  -0.001070  -0.012494   0.001666   0.000540   0.006408
    19  H    0.000006   0.000003   0.000042  -0.000032  -0.000008   0.000184
    20  C   -0.001061   0.000288  -0.019865  -0.021068   0.002729   0.010587
    21  C   -0.000002  -0.000034  -0.000549   0.004045  -0.000059   0.000185
    22  H    0.000000   0.000002   0.000082  -0.000031  -0.000001  -0.000025
    23  C   -0.000113   0.000391   0.008757  -0.005975  -0.000654  -0.011080
    24  H   -0.000004   0.000002   0.000370  -0.000289  -0.000011  -0.000524
    25  H    0.000000  -0.000000  -0.000004   0.000005   0.000000   0.000009
    26  H   -0.000000  -0.000000  -0.000001  -0.000000   0.000000   0.000000
    27  O   -0.000155  -0.000868  -0.039705  -0.066335   0.013049   0.044101
    28  O   -0.000494   0.000055   0.011856   0.028915  -0.006566  -0.021065
    29  H    0.000028  -0.000006  -0.000536  -0.002957   0.000600   0.001637
               7          8          9         10         11         12
     1  C    0.000283   0.000085  -0.000388  -0.000274   0.000920   0.000559
     2  C    0.000359  -0.000375   0.000102  -0.002857   0.000336  -0.004064
     3  C   -0.000288   0.000950  -0.000257   0.003389   0.000060  -0.060339
     4  C   -0.000178   0.000346   0.006627   0.002881  -0.001155  -0.039448
     5  C   -0.000129   0.001078  -0.006520  -0.000144   0.000142  -0.004430
     6  C   -0.000081  -0.001919   0.002911   0.000468  -0.000278   0.069937
     7  H    0.000751  -0.000012  -0.000000  -0.000001  -0.000006   0.000001
     8  H   -0.000012  -0.000030  -0.000031   0.000000   0.000002  -0.000247
     9  H   -0.000000  -0.000031   0.000527  -0.000002  -0.000001   0.002140
    10  H   -0.000001   0.000000  -0.000002  -0.001189   0.000059  -0.001273
    11  H   -0.000006   0.000002  -0.000001   0.000059  -0.000291  -0.000007
    12  C    0.000001  -0.000247   0.002140  -0.001273  -0.000007  -0.102943
    13  C    0.000005   0.000164  -0.005902  -0.001307   0.000014  -0.078578
    14  H   -0.000000   0.000002  -0.000089  -0.000275   0.000008   0.000157
    15  C    0.000003  -0.000008  -0.001528  -0.000487  -0.000011   0.093931
    16  H   -0.000000   0.000012  -0.000825  -0.000003   0.000000   0.004850
    17  C   -0.000001   0.000000  -0.000141   0.000004  -0.000001   0.053554
    18  C    0.000000  -0.000001   0.000046   0.000048  -0.000001  -0.008888
    19  H   -0.000000   0.000000  -0.000001   0.000009  -0.000000   0.001406
    20  C    0.000000  -0.000002   0.000236  -0.000026   0.000000   0.015146
    21  C    0.000000  -0.000000  -0.000009  -0.000002  -0.000000   0.006003
    22  H   -0.000000   0.000000  -0.000000  -0.000000   0.000000   0.000170
    23  C   -0.000000   0.000002   0.000043   0.000003   0.000000  -0.029844
    24  H   -0.000000   0.000000  -0.000007   0.000000   0.000000  -0.003691
    25  H    0.000000  -0.000000  -0.000000   0.000000  -0.000000   0.000132
    26  H    0.000000  -0.000000   0.000000  -0.000000  -0.000000   0.000000
    27  O    0.000001  -0.000084   0.003469  -0.000003  -0.000001   0.021969
    28  O   -0.000000   0.000045  -0.001329   0.000001   0.000000  -0.011847
    29  H    0.000000  -0.000001   0.000044  -0.000000  -0.000000  -0.000212
              13         14         15         16         17         18
     1  C    0.007050   0.001312   0.001072   0.000555   0.001030  -0.000148
     2  C    0.012028   0.003062  -0.000907   0.000033   0.000752  -0.001070
     3  C    0.104620   0.045905  -0.036826   0.014844   0.029616  -0.012494
     4  C    0.133532  -0.026924   0.082722   0.021533   0.046575   0.001666
     5  C   -0.024959  -0.001030  -0.004347  -0.005596  -0.003675   0.000540
     6  C   -0.053501  -0.014401   0.038145  -0.008067  -0.008546   0.006408
     7  H    0.000005  -0.000000   0.000003  -0.000000  -0.000001   0.000000
     8  H    0.000164   0.000002  -0.000008   0.000012   0.000000  -0.000001
     9  H   -0.005902  -0.000089  -0.001528  -0.000825  -0.000141   0.000046
    10  H   -0.001307  -0.000275  -0.000487  -0.000003   0.000004   0.000048
    11  H    0.000014   0.000008  -0.000011   0.000000  -0.000001  -0.000001
    12  C   -0.078578   0.000157   0.093931   0.004850   0.053554  -0.008888
    13  C    0.653007   0.005750  -0.076768   0.044809   0.050247  -0.023867
    14  H    0.005750   0.033591  -0.018502   0.000092   0.009784  -0.005847
    15  C   -0.076768  -0.018502  -0.103129  -0.021707  -0.077214   0.005373
    16  H    0.044809   0.000092  -0.021707  -0.108810   0.001997  -0.001681
    17  C    0.050247   0.009784  -0.077214   0.001997   0.074897  -0.048688
    18  C   -0.023867  -0.005847   0.005373  -0.001681  -0.048688   0.039437
    19  H   -0.000364   0.000151   0.002245   0.000023   0.001386  -0.004633
    20  C   -0.060968  -0.005662  -0.002570  -0.012227  -0.181071   0.072815
    21  C    0.003969  -0.000569  -0.007032  -0.000204  -0.041932   0.021501
    22  H    0.000343   0.000031  -0.000921  -0.000000   0.005362  -0.002554
    23  C    0.021187   0.003114   0.044439   0.008769   0.110583  -0.048188
    24  H   -0.000144   0.000041   0.012214  -0.000292   0.006397  -0.002083
    25  H    0.000304  -0.000000  -0.001290   0.000003  -0.001033   0.000532
    26  H    0.000042  -0.000000   0.000166   0.000000  -0.000786   0.000294
    27  O   -0.240412  -0.002220   0.047757   0.019514  -0.011675   0.006591
    28  O    0.061217   0.000384  -0.000867   0.003950   0.004622  -0.001653
    29  H   -0.003177  -0.000006   0.001965   0.000751  -0.000025   0.000100
              19         20         21         22         23         24
     1  C    0.000006  -0.001061  -0.000002   0.000000  -0.000113  -0.000004
     2  C    0.000003   0.000288  -0.000034   0.000002   0.000391   0.000002
     3  C    0.000042  -0.019865  -0.000549   0.000082   0.008757   0.000370
     4  C   -0.000032  -0.021068   0.004045  -0.000031  -0.005975  -0.000289
     5  C   -0.000008   0.002729  -0.000059  -0.000001  -0.000654  -0.000011
     6  C    0.000184   0.010587   0.000185  -0.000025  -0.011080  -0.000524
     7  H   -0.000000   0.000000   0.000000  -0.000000  -0.000000  -0.000000
     8  H    0.000000  -0.000002  -0.000000   0.000000   0.000002   0.000000
     9  H   -0.000001   0.000236  -0.000009  -0.000000   0.000043  -0.000007
    10  H    0.000009  -0.000026  -0.000002  -0.000000   0.000003   0.000000
    11  H   -0.000000   0.000000  -0.000000   0.000000   0.000000   0.000000
    12  C    0.001406   0.015146   0.006003   0.000170  -0.029844  -0.003691
    13  C   -0.000364  -0.060968   0.003969   0.000343   0.021187  -0.000144
    14  H    0.000151  -0.005662  -0.000569   0.000031   0.003114   0.000041
    15  C    0.002245  -0.002570  -0.007032  -0.000921   0.044439   0.012214
    16  H    0.000023  -0.012227  -0.000204  -0.000000   0.008769  -0.000292
    17  C    0.001386  -0.181071  -0.041932   0.005362   0.110583   0.006397
    18  C   -0.004633   0.072815   0.021501  -0.002554  -0.048188  -0.002083
    19  H   -0.002254   0.000294  -0.000793   0.000128   0.000801   0.000011
[...]
 ! A16   A(4,6,5)              120.4375         -DE/DX =   -0.0007              !
 ! A17   A(4,6,9)              121.3259         -DE/DX =   -0.0041              !
 ! A18   A(5,6,9)              118.2334         -DE/DX =    0.0048              !
 ! A19   A(4,12,13)            126.9182         -DE/DX =    0.0032              !
 ! A20   A(4,12,14)            114.4604         -DE/DX =   -0.0005              !
 ! A21   A(13,12,14)           118.6213         -DE/DX =   -0.0027              !
 ! A22   A(12,13,15)           126.0013         -DE/DX =    0.0142              !
 ! A23   A(12,13,16)           118.5862         -DE/DX =   -0.0094              !
 ! A24   A(15,13,16)           115.3772         -DE/DX =   -0.0048              !
 ! A25   A(13,15,17)           122.7236         -DE/DX =   -0.0049              !
 ! A26   A(13,15,20)           119.2322         -DE/DX =    0.0039              !
 ! A27   A(17,15,20)           118.0431         -DE/DX =    0.001               !
 ! A28   A(13,16,27)           141.1057         -DE/DX =    0.0443              !
 ! A29   A(15,17,18)           120.6775         -DE/DX =    0.0004              !
 ! A30   A(15,17,19)           121.3929         -DE/DX =   -0.0053              !
 ! A31   A(18,17,19)           117.9295         -DE/DX =    0.0049              !
 ! A32   A(17,18,21)           120.5608         -DE/DX =    0.0012              !
 ! A33   A(17,18,22)           119.5341         -DE/DX =   -0.0017              !
 ! A34   A(21,18,22)           119.9051         -DE/DX =    0.0005              !
 ! A35   A(15,20,23)           121.233          -DE/DX =    0.0014              !
 ! A36   A(15,20,24)           120.0554         -DE/DX =   -0.0045              !
 ! A37   A(23,20,24)           118.7111         -DE/DX =    0.0031              !
 ! A38   A(18,21,23)           119.4309         -DE/DX =   -0.003               !
 ! A39   A(18,21,26)           120.2951         -DE/DX =    0.0015              !
 ! A40   A(23,21,26)           120.2739         -DE/DX =    0.0015              !
 ! A41   A(20,23,21)           120.0546         -DE/DX =   -0.0011              !
 ! A42   A(20,23,25)           119.8988         -DE/DX =    0.0001              !
 ! A43   A(21,23,25)           120.0466         -DE/DX =    0.001               !
 ! A44   A(16,27,28)           105.8655         -DE/DX =    0.002               !
 ! A45   A(27,28,29)           106.1314         -DE/DX =    0.0056              !
 ! D1    D(5,1,2,3)              0.176          -DE/DX =    0.0                 !
 ! D2    D(5,1,2,11)          -179.7905         -DE/DX =    0.0                 !
 ! D3    D(7,1,2,3)            179.9178         -DE/DX =    0.0                 !
 ! D4    D(7,1,2,11)            -0.0486         -DE/DX =    0.0                 !
 ! D5    D(2,1,5,6)             -0.1981         -DE/DX =    0.0                 !
 ! D6    D(2,1,5,8)            179.593          -DE/DX =    0.0                 !
 ! D7    D(7,1,5,6)           -179.9398         -DE/DX =    0.0                 !
 ! D8    D(7,1,5,8)             -0.1487         -DE/DX =    0.0                 !
 ! D9    D(1,2,3,4)              0.2052         -DE/DX =    0.0                 !
 ! D10   D(1,2,3,10)           179.9685         -DE/DX =   -0.0001              !
 ! D11   D(11,2,3,4)          -179.8282         -DE/DX =    0.0                 !
 ! D12   D(11,2,3,10)           -0.065          -DE/DX =   -0.0001              !
 ! D13   D(2,3,4,6)             -0.5535         -DE/DX =   -0.0001              !
 ! D14   D(2,3,4,12)          -179.93           -DE/DX =   -0.0001              !
 ! D15   D(10,3,4,6)           179.6849         -DE/DX =    0.0                 !
 ! D16   D(10,3,4,12)            0.3084         -DE/DX =   -0.0001              !
 ! D17   D(3,4,6,5)              0.5289         -DE/DX =    0.0001              !
 ! D18   D(3,4,6,9)           -178.8124         -DE/DX =   -0.0001              !
 ! D19   D(12,4,6,5)           179.8685         -DE/DX =    0.0002              !
 ! D20   D(12,4,6,9)             0.5272         -DE/DX =    0.0                 !
 ! D21   D(3,4,12,13)         -173.8048         -DE/DX =    0.0006              !
 ! D22   D(3,4,12,14)            6.0962         -DE/DX =    0.0003              !
 ! D23   D(6,4,12,13)            6.8531         -DE/DX =    0.0005              !
 ! D24   D(6,4,12,14)         -173.246          -DE/DX =    0.0002              !
 ! D25   D(1,5,6,4)             -0.1606         -DE/DX =   -0.0001              !
 ! D26   D(1,5,6,9)            179.2008         -DE/DX =    0.0001              !
 ! D27   D(8,5,6,4)           -179.9525         -DE/DX =    0.0                 !
 ! D28   D(8,5,6,9)             -0.5911         -DE/DX =    0.0001              !
 ! D29   D(4,12,13,15)        -179.3489         -DE/DX =   -0.0005              !
 ! D30   D(4,12,13,16)           2.9203         -DE/DX =    0.0018              !
 ! D31   D(14,12,13,15)          0.7538         -DE/DX =   -0.0002              !
 ! D32   D(14,12,13,16)       -176.977          -DE/DX =    0.002               !
 ! D33   D(12,13,15,17)         -2.3756         -DE/DX =    0.0006              !
 ! D34   D(12,13,15,20)        177.2452         -DE/DX =    0.0004              !
 ! D35   D(16,13,15,17)        175.4189         -DE/DX =   -0.0016              !
 ! D36   D(16,13,15,20)         -4.9603         -DE/DX =   -0.0018              !
 ! D37   D(12,13,16,27)        112.2281         -DE/DX =   -0.0015              !
 ! D38   D(15,13,16,27)        -65.7401         -DE/DX =    0.0005              !
 ! D39   D(13,15,17,18)        179.7269         -DE/DX =   -0.0003              !
 ! D40   D(13,15,17,19)         -0.3968         -DE/DX =   -0.0002              !
 ! D41   D(20,15,17,18)          0.1018         -DE/DX =   -0.0001              !
 ! D42   D(20,15,17,19)        179.9781         -DE/DX =    0.0                 !
 ! D43   D(13,15,20,23)       -179.7117         -DE/DX =    0.0003              !
 ! D44   D(13,15,20,24)          0.0207         -DE/DX =    0.0003              !
 ! D45   D(17,15,20,23)         -0.0731         -DE/DX =    0.0001              !
 ! D46   D(17,15,20,24)        179.6592         -DE/DX =    0.0001              !
 ! D47   D(13,16,27,28)        175.266          -DE/DX =   -0.001               !
 ! D48   D(15,17,18,21)         -0.031          -DE/DX =    0.0001              !
 ! D49   D(15,17,18,22)        179.9421         -DE/DX =    0.0                 !
 ! D50   D(19,17,18,21)       -179.9114         -DE/DX =    0.0                 !
 ! D51   D(19,17,18,22)          0.0617         -DE/DX =    0.0                 !
 ! D52   D(17,18,21,23)         -0.0713         -DE/DX =   -0.0001              !
 ! D53   D(17,18,21,26)        179.9886         -DE/DX =   -0.0001              !
 ! D54   D(22,18,21,23)        179.9557         -DE/DX =    0.0                 !
 ! D55   D(22,18,21,26)          0.0156         -DE/DX =    0.0                 !
 ! D56   D(15,20,23,21)         -0.0273         -DE/DX =   -0.0001              !
 ! D57   D(15,20,23,25)        179.949          -DE/DX =    0.0                 !
 ! D58   D(24,20,23,21)       -179.7632         -DE/DX =   -0.0001              !
 ! D59   D(24,20,23,25)          0.2132         -DE/DX =    0.0                 !
 ! D60   D(18,21,23,20)          0.0999         -DE/DX =    0.0001              !
 ! D61   D(18,21,23,25)       -179.8764         -DE/DX =    0.0                 !
 ! D62   D(26,21,23,20)       -179.96           -DE/DX =    0.0001              !
 ! D63   D(26,21,23,25)          0.0637         -DE/DX =    0.0                 !
 ! D64   D(16,27,28,29)       -102.5783         -DE/DX =    0.0024              !
 --------------------------------------------------------------------------------
 GradGradGradGradGradGradGradGradGradGradGradGradGradGradGradGradGradGrad

                          Input orientation:                          
 ---------------------------------------------------------------------
 Center     Atomic      Atomic             Coordinates (Angstroms)
 Number     Number       Type             X           Y           Z
 ---------------------------------------------------------------------
      1          6           0       -6.114300    1.074590   -0.210450
      2          6           0       -5.656690    1.984850   -1.162730
      3          6           0       -4.295490    2.292610   -1.240780
      4          6           0       -3.366380    1.690620   -0.369180
      5          6           0       -5.211230    0.473610    0.666640
      6          6           0       -3.847680    0.776940    0.592460
      7          1           0       -7.168660    0.837660   -0.149610
      8          1           0       -5.568670   -0.227940    1.409570
      9          1           0       -3.200070    0.296470    1.300960
     10          1           0       -3.967820    3.003290   -1.989950
     11          1           0       -6.357060    2.453970   -1.841720
     12          6           0       -1.929640    2.073310   -0.512280
     13          6           0       -0.882720    1.527320    0.153510
     14          1           0       -1.746070    2.865760   -1.222680
     15          6           0        0.539240    1.980310   -0.023200
     16          1           0       -1.058890    0.623300    0.930570
     17          6           0        0.930650    2.982450   -0.943090
     18          6           0        2.272380    3.360290   -1.058510
     19          1           0        0.227540    3.487300   -1.584950
     20          6           0        1.540230    1.382920    0.769200
     21          6           0        3.244970    2.753640   -0.264920
     22          1           0        2.558320    4.127220   -1.767040
     23          6           0        2.878840    1.766390    0.648370
     24          1           0        1.295980    0.618030    1.491560
     25          1           0        3.633480    1.296600    1.266060
     26          1           0        4.282070    3.049330   -0.357130
     27          8           0       -0.918070   -0.470740    0.878750
     28          8           0       -1.054870   -0.900540    2.117170
     29          1           0       -0.132420   -1.092290    2.422470
 ---------------------------------------------------------------------
                    Distance matrix (angstroms):
                    1          2          3          4          5
     1  C    0.000000
     2  C    1.394567   0.000000
     3  C    2.419343   1.397739   0.000000
     4  C    2.820594   2.441682   1.409015   0.000000
     5  C    1.394991   2.414306   2.790267   2.440801   0.000000
     6  C    2.422979   2.795041   2.420446   1.411103   1.398850
     7  H    1.082364   2.151397   3.400388   3.902958   2.151820
     8  H    2.149130   3.394247   3.872792   3.419781   1.082534
     9  H    3.373806   3.867218   3.412472   2.181898   2.116248
    10  H    3.390263   2.138643   1.083369   2.170652   3.873347
    11  H    2.150038   1.082414   2.153424   3.419831   3.395088
    12  C    4.312763   3.784417   2.485166   1.493704   3.836369
    13  C    5.263731   4.973189   3.765198   2.543313   4.484374
    14  H    4.828492   4.009058   2.613115   2.175964   4.615111
    15  C    6.717513   6.299849   4.995463   3.931601   5.984474
    16  H    5.202188   5.232159   4.239922   2.855351   4.163411
    17  C    7.335394   6.666070   5.279871   4.523568   6.827020
    18  C    8.733844   8.048158   6.656582   5.921029   8.204479
    19  H    6.923103   6.087675   4.690793   4.197906   6.613033
    20  C    7.723122   7.475984   6.238845   5.046326   6.813191
    21  C    9.508844   8.979791   7.617308   6.697076   8.807591
    22  H    9.325013   8.511247   7.114595   6.556913   8.923989
    23  C    9.060504   8.728292   7.437527   6.328027   8.192731
    24  H    7.616924   7.566576   6.444722   5.133264   6.560879
    25  H    9.861470   9.627044   8.375252   7.199118   8.903118
    26  H   10.583271  10.028014   8.656096   7.768206   9.889650
    27  O    5.529485   5.714200   4.851338   3.496145   4.400910
    28  O    5.909043   6.345074   5.654525   4.270729   4.611687
    29  H    6.885530   7.269113   6.496776   5.098666   5.597258
                    6          7          8          9         10
     6  C    0.000000
     7  H    3.403419   0.000000
     8  H    2.153894   2.475180   0.000000
     9  H    1.073416   4.259900   2.428388   0.000000
    10  H    3.411731   4.280442   4.955835   4.329712   0.000000
    11  H    3.877454   2.476770   4.287783   4.949528   2.456052
    12  C    2.565132   5.394969   4.715061   2.838836   2.683757
    13  C    3.089779   6.330920   5.159143   2.863869   4.036180
    14  H    3.474862   5.888052   5.577812   3.883829   2.354526
    15  C    4.590447   7.793161   6.650997   4.309426   5.022767
    16  H    2.813410   6.208223   4.614344   2.197421   4.759797
    17  C    5.482210   8.415970   7.621206   5.414157   5.009128
    18  C    6.845037   9.814428   8.969330   6.700881   6.319424
    19  H    5.356733   7.986524   7.507743   5.500762   4.242562
    20  C    5.424760   8.774183   7.317199   4.892196   6.370017
    21  C    7.412700  10.589049   9.453782   7.073062   7.420404
    22  H    7.604502  10.394779   9.752243   7.566130   6.625965
    23  C    6.799133  10.121836   8.713048   6.288059   7.440928
    24  H    5.224067   8.625069   6.917066   4.511562   6.746700
    25  H    7.529378  10.904172   9.328686   6.906438   8.443587
    26  H    8.494605  11.664209  10.530850   8.143090   8.410048
    27  O    3.197074   6.468331   4.687089   2.444258   5.440524
    28  O    3.597008   6.748189   4.618168   2.588613   6.371311
    29  H    4.543800   7.736212   5.596953   3.549213   7.138173
                   11         12         13         14         15
    11  H    0.000000
    12  C    4.638358   0.000000
    13  C    5.899832   1.355516   0.000000
    14  H    4.670547   1.079974   2.104921   0.000000
    15  C    7.147749   2.518574   1.502796   2.728629   0.000000
    16  H    6.253603   2.223185   1.205035   3.183917   2.303296
    17  C    7.361898   3.032061   2.570651   2.693811   1.415515
    18  C    8.712179   4.428505   3.844922   4.052092   2.445401
    19  H    6.670132   2.793459   2.845425   2.100640   2.192542
    20  C    8.386372   3.762822   2.504119   4.119001   1.409522
    21  C    9.735249   5.225000   4.326288   5.083341   2.824437
    22  H    9.071347   5.092618   4.721096   4.518338   3.424454
    23  C    9.590368   4.956086   3.801496   5.108741   2.443460
    24  H    8.546956   4.066674   2.713654   4.655476   2.173237
    25  H   10.526571   5.891865   4.656937   6.131529   3.421107
    26  H   10.758696   6.289835   5.408542   6.092729   3.906800
    27  O    6.748148   3.070900   2.125904   4.029122   2.990805
    28  O    7.418812   4.064851   3.127315   5.081080   3.927043
    29  H    8.336991   4.675872   3.545911   5.617575   3.984131
                   16         17         18         19         20
    16  H    0.000000
    17  C    3.610327   0.000000
    18  C    4.748148   1.398687   0.000000
    19  H    4.023088   1.077600   2.115335   0.000000
    20  C    2.712653   2.421161   2.790441   3.419590   0.000000
    21  C    4.948814   2.422467   1.394181   3.374258   2.419590
    22  H    5.713035   2.153765   1.082570   2.423879   3.873010
    23  C    4.109989   2.794099   2.412830   3.870225   1.397686
    24  H    2.420775   3.413425   3.869910   4.340413   1.080055
    25  H    4.752286   3.876561   3.393381   4.952560   2.153141
    26  H    6.005801   3.402916   2.151159   4.258940   3.400475
    27  O    1.104282   4.319883   5.348714   4.800867   3.080795
    28  O    1.931353   5.327766   6.269785   5.882466   3.710223
    29  H    2.455068   5.390790   6.142129   6.096034   3.414341
                   21         22         23         24         25
    21  C    0.000000
    22  H    2.148156   0.000000
    23  C    1.393848   3.392706   0.000000
    24  H    3.382989   4.952413   2.129588   0.000000
    25  H    2.148908   4.285799   1.082463   2.444425   0.000000
    26  H    1.082364   2.474067   2.150818   4.271488   2.475374
    27  O    5.388461   6.342454   4.412975   2.542238   4.897970
    28  O    6.125031   7.308940   4.974330   2.867741   5.247136
    29  H    5.781004   7.213554   4.515215   2.414977   4.607177
                   26         27         28         29
    26  H    0.000000
    27  O    6.399980   0.000000
    28  O    7.085659   1.318001   0.000000
    29  H    6.660849   1.840283   0.990399   0.000000
 Stoichiometry    C14H13O2(2)
 Framework group  C1[X(C14H13O2)]
 Deg. of freedom    81
 Full point group                 C1      NOp   1
 Largest Abelian subgroup         C1      NOp   1
 Largest concise Abelian subgroup C1      NOp   1
                         Standard orientation:                         
 ---------------------------------------------------------------------
 Center     Atomic      Atomic             Coordinates (Angstroms)
 Number     Number       Type             X           Y           Z
 ---------------------------------------------------------------------
      1          6           0       -4.781310   -0.284070   -0.072742
      2          6           0       -4.228715   -1.549965    0.119524
      3          6           0       -2.840703   -1.713942    0.133984
      4          6           0       -1.980029   -0.611881   -0.039296
      5          6           0       -3.946115    0.818511   -0.253752
      6          6           0       -2.556284    0.660600   -0.239135
      7          1           0       -5.856224   -0.157907   -0.085165
      8          1           0       -4.376458    1.799577   -0.409302
      9          1           0       -1.961979    1.540304   -0.397700
     10          1           0       -2.438736   -2.708564    0.285105
     11          1           0       -4.875987   -2.406557    0.257028
     12          6           0       -0.508664   -0.868086   -0.014915
     13          6           0        0.470577    0.068369   -0.054443
     14          1           0       -0.236858   -1.911941    0.038286
     15          6           0        1.936139   -0.264065   -0.051169
     16          1           0        0.192465    1.240446   -0.086064
     17          6           0        2.436908   -1.584151    0.050262
     18          6           0        3.814337   -1.827043    0.046089
     19          1           0        1.792949   -2.443874    0.136365
     20          6           0        2.866357    0.789398   -0.159162
     21          6           0        4.715188   -0.768298   -0.060055
     22          1           0        4.183978   -2.841437    0.125648
     23          6           0        4.241327    0.538467   -0.163175
     24          1           0        2.538660    1.814881   -0.245879
     25          1           0        4.940487    1.360523   -0.247591
     26          1           0        5.780303   -0.960734   -0.063331
     27          8           0        0.178166    2.045744    0.669403
     28          8           0        0.018101    3.162488   -0.012057
     29          1           0        0.913189    3.586362   -0.018258
 ---------------------------------------------------------------------
 Rotational constants (GHZ):           1.0622229           0.2576851           0.2091800


 We make a living by what we get,
 we make a life by what we give.
                   -- Sir Winston Churchill
 Error termination request processed by link 9999.
 Error termination via Lnk1e in /shared/centos7/gaussian/g16/l9999.exe at Mon Oct 15 20:20:47 2018.
 Job cpu time:       0 days  3 hours  3 minutes 46.8 seconds.
 Elapsed time:       0 days  3 hours  3 minutes 51.9 seconds.
 File lengths (MBytes):  RWF=    640 Int=      0 D2E=      0 Chk=     64 Scr=     32
