 Entering Gaussian System, Link 0=g16
 Input=rxn906.com
 Output=rxn906.log
 Initial command:
 /shared/centos7/gaussian/g16/l1.exe "/scratch/dinius.ab/QMscratch/Gau-36562.inp" -scrdir="/scratch/dinius.ab/QMscratch/"
 Entering Link 1 = /shared/centos7/gaussian/g16/l1.exe PID=     36563.
  
 Copyright (c) 1988,1990,1992,1993,1995,1998,2003,2009,2016,
            Gaussian, Inc.  All Rights Reserved.
  
 This is part of the Gaussian(R) 16 program.  It is based on
 the Gaussian(R) 09 system (copyright 2009, Gaussian, Inc.),
 the Gaussian(R) 03 system (copyright 2003, Gaussian, Inc.),
 the Gaussian(R) 98 system (copyright 1998, Gaussian, Inc.),
 the Gaussian(R) 94 system (copyright 1995, Gaussian, Inc.),
 the Gaussian 92(TM) system (copyright 1992, Gaussian, Inc.),
 the Gaussian 90(TM) system (copyright 1990, Gaussian, Inc.),
 the Gaussian 88(TM) system (copyright 1988, Gaussian, Inc.),
 the Gaussian 86(TM) system (copyright 1986, Carnegie Mellon
 University), and the Gaussian 82(TM) system (copyright 1983,
 Carnegie Mellon University). Gaussian is a federally registered
 trademark of Gaussian, Inc.
  
 This software contains proprietary and confidential information,
 including trade secrets, belonging to Gaussian, Inc.
  
 This software is provided under written license and may be
 used, copied, transmitted, or stored only in accord with that
 written license.
  
 The following legend is applicable only to US Government
 contracts under FAR:
  
                    RESTRICTED RIGHTS LEGEND
  
 Use, reproduction and disclosure by the US Government is
 subject to restrictions as set forth in subparagraphs (a)
 and (c) of the Commercial Computer Software - Restricted
 Rights clause in FAR 52.227-19.
  
 Gaussian, Inc.
 340 Quinnipiac St., Bldg. 40, Wallingford CT 06492
  
  
 ---------------------------------------------------------------
 Warning -- This program may not be used in any manner that
 competes with the business of Gaussian, Inc. or will provide
 assistance to any competitor of Gaussian, Inc.  The licensee
 of this program is prohibited from giving any competitor of
 Gaussian, Inc. access to this program.  By using this program,
 the user acknowledges that Gaussian, Inc. is engaged in the
 business of creating and licensing software in the field of
 computational chemistry and represents and warrants to the
 licensee that it is not a competitor of Gaussian, Inc. and that
 it will not use this program in any manner prohibited above.
 ---------------------------------------------------------------
  

 Cite this work as:
 Gaussian 16, Revision A.03,
 M. J. Frisch, G. W. Trucks, H. B. Schlegel, G. E. Scuseria, 
 M. A. Robb, J. R. Cheeseman, G. Scalmani, V. Barone, 
 G. A. Petersson, H. Nakatsuji, X. Li, M. Caricato, A. V. Marenich, 
 J. Bloino, B. G. Janesko, R. Gomperts, B. Mennucci, H. P. Hratchian, 
 J. V. Ortiz, A. F. Izmaylov, J. L. Sonnenberg, D. Williams-Young, 
 F. Ding, F. Lipparini, F. Egidi, J. Goings, B. Peng, A. Petrone, 
 T. Henderson, D. Ranasinghe, V. G. Zakrzewski, J. Gao, N. Rega, 
 G. Zheng, W. Liang, M. Hada, M. Ehara, K. Toyota, R. Fukuda, 
 J. Hasegawa, M. Ishida, T. Nakajima, Y. Honda, O. Kitao, H. Nakai, 
 T. Vreven, K. Throssell, J. A. Montgomery, Jr., J. E. Peralta, 
 F. Ogliaro, M. J. Bearpark, J. J. Heyd, E. N. Brothers, K. N. Kudin, 
 V. N. Staroverov, T. A. Keith, R. Kobayashi, J. Normand, 
 K. Raghavachari, A. P. Rendell, J. C. Burant, S. S. Iyengar, 
 J. Tomasi, M. Cossi, J. M. Millam, M. Klene, C. Adamo, R. Cammi, 
 J. W. Ochterski, R. L. Martin, K. Morokuma, O. Farkas, 
 J. B. Foresman, and D. J. Fox, Gaussian, Inc., Wallingford CT, 2016.
 
 ******************************************
 Gaussian 16:  EM64L-G16RevA.03 25-Dec-2016
                 6-Nov-2018 
 ******************************************
 ----------------------------------------------------------------------
 #m062x/6-311+g(2df,2p) Opt=(ModRedun,Loose,maxcycle=1000) Int(Grid=SG1
 ) freq
 ----------------------------------------------------------------------
 1/6=1000,7=-1,18=120,19=15,26=2,38=1/1,3;
 2/9=110,12=2,17=6,18=5,40=1/2;
 3/5=4,6=6,7=214,11=2,25=1,30=1,71=1,74=-55,75=1/1,2,3;
 4//1;
 5/5=2,38=5/2;
 6/7=2,8=2,9=2,10=2,28=1/1;
 7//1,2,3,16;
 1/6=1000,7=-1,18=20,19=15,26=2/3(2);
 2/9=110/2;
 99//99;
 2/9=110/2;
 3/5=4,6=6,7=214,11=2,25=1,30=1,71=1,74=-55,75=1/1,2,3;
 4/5=5,16=3,69=1/1;
 5/5=2,38=5/2;
 7//1,2,3,16;
 1/6=1000,7=-1,18=20,19=15,26=2/3(-5);
 2/9=110/2;
 6/7=2,8=2,9=2,10=2,19=2,28=1/1;
 99/9=1/99;
 -----
 Title
 -----
 Symbolic Z-matrix:
 Charge =  0 Multiplicity = 2
 C                    -24.8226   17.0036   2.04475 
 C                    -24.0593   16.78486   0.90244 
 C                    -24.3238   16.68148   3.31065 
 H                    -25.81687   17.43105   1.93728 
 C                    -22.78494   16.24001   1.01119 
 H                    -24.45929   17.04107  -0.07557 
 C                    -22.27187   15.90769   2.26448 
 H                    -22.1946   16.07395   0.11291 
 C                    -23.03768   16.12238   3.42314 
 C                    -22.49318   15.76922   4.66604 
 C                    -21.21455   15.22201   4.75074 
 H                    -23.05158   15.91053   5.5868 
 C                    -20.99115   15.35941   2.35673 
 C                    -20.46272   15.01817   3.59799 
 H                    -20.39837   15.19521   1.45971 
 H                    -20.80314   14.95319   5.72058 
 H                    -19.46497   14.59161   3.66652 
 C                    -25.19632   16.94944   4.53343 
 H                    -26.11452   17.48655   4.27277 
 H                    -24.6533   17.55533   5.26346 
 H                    -25.47988   16.00717   5.00856 
 O                    -26.96508   18.18844   4.31641 
 O                    -27.56298   19.30326   3.56659 
 H                    -27.10884   20.04839   4.00172 
 
 The following ModRedundant input section has been read:
 

 GradGradGradGradGradGradGradGradGradGradGradGradGradGradGradGradGradGrad
 Berny optimization.
 Initialization pass.
                           ----------------------------
                           !    Initial Parameters    !
                           ! (Angstroms and Degrees)  !
 --------------------------                            --------------------------
 ! Name  Definition              Value          Derivative Info.                !
 --------------------------------------------------------------------------------
 ! R1    R(1,2)                  1.3912         estimate D2E/DX2                !
 ! R2    R(1,3)                  1.3982         estimate D2E/DX2                !
 ! R3    R(1,4)                  1.0876         estimate D2E/DX2                !
 ! R4    R(2,5)                  1.3902         estimate D2E/DX2                !
 ! R5    R(2,6)                  1.0873         estimate D2E/DX2                !
 ! R6    R(3,9)                  1.4069         estimate D2E/DX2                !
 ! R7    R(3,18)                 1.5259         estimate D2E/DX2                !
 ! R8    R(5,7)                  1.3944         estimate D2E/DX2                !
 ! R9    R(5,8)                  1.0877         estimate D2E/DX2                !
 ! R10   R(7,9)                  1.4054         estimate D2E/DX2                !
 ! R11   R(7,13)                 1.3962         estimate D2E/DX2                !
 ! R12   R(9,10)                 1.4021         estimate D2E/DX2                !
 ! R13   R(10,11)                1.3934         estimate D2E/DX2                !
 ! R14   R(10,12)                1.0861         estimate D2E/DX2                !
 ! R15   R(11,14)                1.3913         estimate D2E/DX2                !
 ! R16   R(11,16)                1.0872         estimate D2E/DX2                !
 ! R17   R(13,14)                1.3915         estimate D2E/DX2                !
 ! R18   R(13,15)                1.0877         estimate D2E/DX2                !
 ! R19   R(14,17)                1.0873         estimate D2E/DX2                !
 ! R20   R(18,19)                1.0952         estimate D2E/DX2                !
 ! R21   R(18,20)                1.0931         estimate D2E/DX2                !
 ! R22   R(18,21)                1.0927         estimate D2E/DX2                !
 ! R23   R(19,22)                1.1036         estimate D2E/DX2                !
 ! R24   R(22,23)                1.4706         estimate D2E/DX2                !
 ! R25   R(23,24)                0.9751         estimate D2E/DX2                !
 ! A1    A(2,1,3)              120.7602         estimate D2E/DX2                !
 ! A2    A(2,1,4)              118.8331         estimate D2E/DX2                !
 ! A3    A(3,1,4)              120.4067         estimate D2E/DX2                !
 ! A4    A(1,2,5)              120.0228         estimate D2E/DX2                !
 ! A5    A(1,2,6)              119.9805         estimate D2E/DX2                !
 ! A6    A(5,2,6)              119.9967         estimate D2E/DX2                !
 ! A7    A(1,3,9)              119.344          estimate D2E/DX2                !
 ! A8    A(1,3,18)             118.7557         estimate D2E/DX2                !
 ! A9    A(9,3,18)             121.9004         estimate D2E/DX2                !
 ! A10   A(2,5,7)              120.0658         estimate D2E/DX2                !
 ! A11   A(2,5,8)              119.5227         estimate D2E/DX2                !
 ! A12   A(7,5,8)              120.4114         estimate D2E/DX2                !
 ! A13   A(5,7,9)              120.2719         estimate D2E/DX2                !
 ! A14   A(5,7,13)             119.3725         estimate D2E/DX2                !
 ! A15   A(9,7,13)             120.3557         estimate D2E/DX2                !
 ! A16   A(3,9,7)              119.5333         estimate D2E/DX2                !
 ! A17   A(3,9,10)             121.7334         estimate D2E/DX2                !
 ! A18   A(7,9,10)             118.7333         estimate D2E/DX2                !
 ! A19   A(9,10,11)            120.6074         estimate D2E/DX2                !
 ! A20   A(9,10,12)            121.2697         estimate D2E/DX2                !
 ! A21   A(11,10,12)           118.1227         estimate D2E/DX2                !
 ! A22   A(10,11,14)           120.2027         estimate D2E/DX2                !
 ! A23   A(10,11,16)           119.9045         estimate D2E/DX2                !
 ! A24   A(14,11,16)           119.8928         estimate D2E/DX2                !
 ! A25   A(7,13,14)            120.2364         estimate D2E/DX2                !
 ! A26   A(7,13,15)            120.313          estimate D2E/DX2                !
 ! A27   A(14,13,15)           119.4506         estimate D2E/DX2                !
 ! A28   A(11,14,13)           119.8636         estimate D2E/DX2                !
 ! A29   A(11,14,17)           120.0765         estimate D2E/DX2                !
 ! A30   A(13,14,17)           120.0599         estimate D2E/DX2                !
 ! A31   A(3,18,19)            112.0114         estimate D2E/DX2                !
 ! A32   A(3,18,20)            110.3934         estimate D2E/DX2                !
 ! A33   A(3,18,21)            110.2062         estimate D2E/DX2                !
 ! A34   A(19,18,20)           107.6732         estimate D2E/DX2                !
 ! A35   A(19,18,21)           107.988          estimate D2E/DX2                !
 ! A36   A(20,18,21)           108.4504         estimate D2E/DX2                !
 ! A37   A(18,19,22)           161.5501         estimate D2E/DX2                !
 ! A38   A(19,22,23)           140.834          estimate D2E/DX2                !
 ! A39   A(22,23,24)            99.3469         estimate D2E/DX2                !
 ! D1    D(3,1,2,5)              0.0072         estimate D2E/DX2                !
 ! D2    D(3,1,2,6)           -179.9326         estimate D2E/DX2                !
 ! D3    D(4,1,2,5)            179.9814         estimate D2E/DX2                !
 ! D4    D(4,1,2,6)              0.0417         estimate D2E/DX2                !
 ! D5    D(2,1,3,9)             -0.3926         estimate D2E/DX2                !
 ! D6    D(2,1,3,18)           179.5855         estimate D2E/DX2                !
 ! D7    D(4,1,3,9)            179.6336         estimate D2E/DX2                !
 ! D8    D(4,1,3,18)            -0.3884         estimate D2E/DX2                !
 ! D9    D(1,2,5,7)              0.2254         estimate D2E/DX2                !
 ! D10   D(1,2,5,8)           -179.9002         estimate D2E/DX2                !
 ! D11   D(6,2,5,7)           -179.8348         estimate D2E/DX2                !
 ! D12   D(6,2,5,8)              0.0396         estimate D2E/DX2                !
 ! D13   D(1,3,9,7)              0.5434         estimate D2E/DX2                !
 ! D14   D(1,3,9,10)          -179.4054         estimate D2E/DX2                !
 ! D15   D(18,3,9,7)          -179.434          estimate D2E/DX2                !
 ! D16   D(18,3,9,10)            0.6172         estimate D2E/DX2                !
 ! D17   D(1,3,18,19)           -6.327          estimate D2E/DX2                !
 ! D18   D(1,3,18,20)         -126.3034         estimate D2E/DX2                !
 ! D19   D(1,3,18,21)          113.9201         estimate D2E/DX2                !
 ! D20   D(9,3,18,19)          173.6504         estimate D2E/DX2                !
 ! D21   D(9,3,18,20)           53.6741         estimate D2E/DX2                !
 ! D22   D(9,3,18,21)          -66.1024         estimate D2E/DX2                !
 ! D23   D(2,5,7,9)             -0.0686         estimate D2E/DX2                !
 ! D24   D(2,5,7,13)           179.9004         estimate D2E/DX2                !
 ! D25   D(8,5,7,9)           -179.9419         estimate D2E/DX2                !
 ! D26   D(8,5,7,13)             0.0271         estimate D2E/DX2                !
 ! D27   D(5,7,9,3)             -0.3174         estimate D2E/DX2                !
 ! D28   D(5,7,9,10)           179.6329         estimate D2E/DX2                !
 ! D29   D(13,7,9,3)           179.7139         estimate D2E/DX2                !
 ! D30   D(13,7,9,10)           -0.3358         estimate D2E/DX2                !
 ! D31   D(5,7,13,14)         -179.8442         estimate D2E/DX2                !
 ! D32   D(5,7,13,15)            0.1413         estimate D2E/DX2                !
 ! D33   D(9,7,13,14)            0.1248         estimate D2E/DX2                !
 ! D34   D(9,7,13,15)         -179.8897         estimate D2E/DX2                !
 ! D35   D(3,9,10,11)         -179.7378         estimate D2E/DX2                !
 ! D36   D(3,9,10,12)            0.3941         estimate D2E/DX2                !
 ! D37   D(7,9,10,11)            0.313          estimate D2E/DX2                !
 ! D38   D(7,9,10,12)         -179.5551         estimate D2E/DX2                !
 ! D39   D(9,10,11,14)          -0.0782         estimate D2E/DX2                !
 ! D40   D(9,10,11,16)         179.9399         estimate D2E/DX2                !
 ! D41   D(12,10,11,14)        179.794          estimate D2E/DX2                !
 ! D42   D(12,10,11,16)         -0.1879         estimate D2E/DX2                !
 ! D43   D(10,11,14,13)         -0.139          estimate D2E/DX2                !
 ! D44   D(10,11,14,17)        179.9619         estimate D2E/DX2                !
 ! D45   D(16,11,14,13)        179.8429         estimate D2E/DX2                !
 ! D46   D(16,11,14,17)         -0.0562         estimate D2E/DX2                !
 ! D47   D(7,13,14,11)           0.1155         estimate D2E/DX2                !
 ! D48   D(7,13,14,17)        -179.9854         estimate D2E/DX2                !
 ! D49   D(15,13,14,11)       -179.8701         estimate D2E/DX2                !
 ! D50   D(15,13,14,17)          0.029          estimate D2E/DX2                !
 ! D51   D(3,18,19,22)        -141.1617         estimate D2E/DX2                !
 ! D52   D(20,18,19,22)        -19.6088         estimate D2E/DX2                !
 ! D53   D(21,18,19,22)         97.3073         estimate D2E/DX2                !
 ! D54   D(18,19,22,23)        119.5326         estimate D2E/DX2                !
 ! D55   D(19,22,23,24)        -91.7266         estimate D2E/DX2                !
 --------------------------------------------------------------------------------
 Trust Radius=3.00D-01 FncErr=1.00D-05 GrdErr=1.00D-04 EigMax=2.50D+02 EigMin=1.00D-04
 Number of steps in this run=    144 maximum allowed number of steps=    144.
 GradGradGradGradGradGradGradGradGradGradGradGradGradGradGradGradGradGrad

                          Input orientation:                          
 ---------------------------------------------------------------------
 Center     Atomic      Atomic             Coordinates (Angstroms)
 Number     Number       Type             X           Y           Z
 ---------------------------------------------------------------------
      1          6           0      -24.822600   17.003600    2.044750
      2          6           0      -24.059300   16.784860    0.902440
      3          6           0      -24.323800   16.681480    3.310650
      4          1           0      -25.816870   17.431050    1.937280
      5          6           0      -22.784940   16.240010    1.011190
      6          1           0      -24.459290   17.041070   -0.075570
      7          6           0      -22.271870   15.907690    2.264480
      8          1           0      -22.194600   16.073950    0.112910
      9          6           0      -23.037680   16.122380    3.423140
     10          6           0      -22.493180   15.769220    4.666040
     11          6           0      -21.214550   15.222010    4.750740
     12          1           0      -23.051580   15.910530    5.586800
     13          6           0      -20.991150   15.359410    2.356730
     14          6           0      -20.462720   15.018170    3.597990
     15          1           0      -20.398370   15.195210    1.459710
     16          1           0      -20.803140   14.953190    5.720580
     17          1           0      -19.464970   14.591610    3.666520
     18          6           0      -25.196320   16.949440    4.533430
     19          1           0      -26.114520   17.486550    4.272770
     20          1           0      -24.653300   17.555330    5.263460
     21          1           0      -25.479880   16.007170    5.008560
     22          8           0      -26.965080   18.188440    4.316410
     23          8           0      -27.562980   19.303260    3.566590
     24          1           0      -27.108840   20.048390    4.001720
 ---------------------------------------------------------------------
                    Distance matrix (angstroms):
                    1          2          3          4          5
     1  C    0.000000
     2  C    1.391167   0.000000
     3  C    1.398237   2.424897   0.000000
     4  H    1.087583   2.139511   2.162697   0.000000
     5  C    2.409019   1.390209   2.801875   3.386564   0.000000
     6  H    2.151547   1.087262   3.407954   2.458998   2.150859
     7  C    2.784874   2.412361   2.429741   3.872300   1.394422
     8  H    3.391554   2.146126   3.889489   4.276785   1.087651
     9  C    2.421249   2.799378   1.406894   3.412374   2.428007
    10  C    3.717668   4.201064   2.453665   4.610285   3.696579
    11  C    4.849172   5.034334   3.724426   5.828959   4.181708
    12  H    4.108215   4.870645   2.719148   4.824708   4.595200
    13  C    4.180993   3.682446   3.710039   5.268321   2.409070
    14  C    5.036173   4.829345   4.213918   6.103021   3.684716
    15  H    4.815221   4.029882   4.587372   5.881088   2.643576
    16  H    5.819963   6.096890   4.603238   6.752084   5.268946
    17  H    6.095247   5.792957   5.301172   7.169332   4.559627
    18  C    2.517167   3.808410   1.525872   2.712384   4.327149
    19  H    2.620376   4.009417   2.186433   2.355035   4.824714
    20  H    3.270040   4.468216   2.164636   3.526020   4.827280
    21  H    3.195162   4.413963   2.161970   3.402023   4.826581
    22  O    3.339836   4.697743   3.202943   2.748142   5.674013
    23  O    3.887688   5.071076   4.175108   3.034588   6.224406
    24  H    4.281048   5.436530   4.423812   3.575132   6.491775
                    6          7          8          9         10
     6  H    0.000000
     7  C    3.397821   0.000000
     8  H    2.469750   2.159367   0.000000
     9  C    3.886636   1.405365   3.416248   0.000000
    10  C    5.288294   2.415707   4.573074   1.402142   0.000000
    11  C    6.093487   2.787395   4.816198   2.428372   1.393380
    12  H    5.943248   3.412589   5.542977   2.174051   1.086084
    13  C    4.557637   1.396197   2.644539   2.430563   2.785130
    14  C    5.793077   2.417130   4.032352   2.807182   2.414037
    15  H    4.717558   2.159927   2.410912   3.417698   3.872760
    16  H    7.163940   3.874644   5.885425   3.411511   2.152718
    17  H    6.704202   3.402421   4.719783   3.894451   3.399391
    18  C    4.668457   3.845229   5.414592   2.564469   2.952536
    19  H    4.674003   4.614324   5.887754   3.471279   4.027156
    20  H    5.367247   4.168910   5.896428   2.837314   2.865871
    21  H    5.287621   4.222700   5.896178   2.913961   3.015679
    22  O    5.185068   5.607001   6.700594   4.526699   5.096347
    23  O    5.292988   6.420376   7.153730   5.533255   6.277030
    24  H    5.717375   6.599976   7.420834   5.685301   6.329055
                   11         12         13         14         15
    11  C    0.000000
    12  H    2.132542   0.000000
    13  C    2.408333   3.870718   0.000000
    14  C    1.391270   3.384356   1.391549   0.000000
    15  H    3.390833   4.958233   1.087656   2.146561   0.000000
    16  H    1.087250   2.447423   3.393501   2.150697   4.286890
    17  H    2.152665   4.276774   2.152741   1.087269   2.470947
    18  C    4.345772   2.605539   4.994965   5.197290   5.961996
    19  H    5.419068   3.686749   5.868974   6.204117   6.770370
    20  H    4.187155   2.318496   5.165509   5.174160   6.176011
    21  H    4.344650   2.498068   5.253617   5.304689   6.251029
    22  O    6.485133   4.703004   6.894316   7.269623   7.761562
    23  O    7.639462   5.995381   7.759295   8.293170   8.523301
    24  H    7.654909   6.007972   7.881539   8.344880   8.662885
                   16         17         18         19         20
    16  H    0.000000
    17  H    2.478024   0.000000
    18  C    4.969343   6.257737   0.000000
    19  H    6.060101   7.277687   1.095227   0.000000
    20  H    4.669456   6.184870   1.093123   1.766737   0.000000
    21  H    4.846622   6.323292   1.092716   1.769949   1.773417
    22  O    7.099862   8.343332   2.170422   1.103633   2.577219
    23  O    8.322152   9.369493   3.475101   2.428407   3.794847
    24  H    8.287183   9.397742   3.680209   2.761370   3.719814
                   21         22         23         24
    21  H    0.000000
    22  O    2.728155   0.000000
    23  O    4.157258   1.470557   0.000000
    24  H    4.471990   1.891854   0.975090   0.000000
 Stoichiometry    C11H11O2(2)
 Framework group  C1[X(C11H11O2)]
 Deg. of freedom    66
 Full point group                 C1      NOp   1
 Largest Abelian subgroup         C1      NOp   1
 Largest concise Abelian subgroup C1      NOp   1
                         Standard orientation:                         
 ---------------------------------------------------------------------
 Center     Atomic      Atomic             Coordinates (Angstroms)
 Number     Number       Type             X           Y           Z
 ---------------------------------------------------------------------
      1          6           0       -1.058814    1.230402   -0.259021
      2          6           0       -0.192436    2.312744   -0.143826
      3          6           0       -0.573879   -0.080599   -0.224664
      4          1           0       -2.123183    1.420715   -0.376225
      5          6           0        1.172731    2.097937    0.007362
      6          1           0       -0.583387    3.326920   -0.171081
      7          6           0        1.676078    0.797917    0.039046
      8          1           0        1.842526    2.950044    0.098320
      9          6           0        0.808099   -0.300945   -0.079964
     10          6           0        1.349766   -1.593927   -0.051753
     11          6           0        2.721797   -1.785212    0.098077
     12          1           0        0.717884   -2.472074   -0.147463
     13          6           0        3.049819    0.598930    0.189392
     14          6           0        3.571863   -0.690619    0.220083
     15          1           0        3.720743    1.449842    0.283232
     16          1           0        3.129463   -2.792915    0.119426
     17          1           0        4.642081   -0.842268    0.337525
     18          6           0       -1.565948   -1.233634   -0.345472
     19          1           0       -2.603986   -0.884414   -0.338843
     20          1           0       -1.444594   -1.929533    0.488743
     21          1           0       -1.399276   -1.778831   -1.277678
     22          8           0       -3.687661   -0.826070   -0.138218
     23          8           0       -4.683640    0.047669    0.499861
     24          1           0       -4.682326   -0.338244    1.395333
 ---------------------------------------------------------------------
 Rotational constants (GHZ):           1.6218408           0.4396218           0.3521468
 Standard basis: 6-311+G(2df,2p) (5D, 7F)
 There are   606 symmetry adapted cartesian basis functions of A   symmetry.
 There are   541 symmetry adapted basis functions of A   symmetry.
   541 basis functions,   797 primitive gaussians,   606 cartesian basis functions
    47 alpha electrons       46 beta electrons
       nuclear repulsion energy       723.6357372427 Hartrees.
 NAtoms=   24 NActive=   24 NUniq=   24 SFac= 1.00D+00 NAtFMM=   60 NAOKFM=F Big=F
 Integral buffers will be    131072 words long.
 Raffenetti 2 integral format.
 Two-electron integral symmetry is turned on.
 One-electron integrals computed using PRISM.
 NBasis=   541 RedAO= T EigKep=  1.09D-06  NBF=   541
 NBsUse=   538 1.00D-06 EigRej=  6.44D-07 NBFU=   538
 ExpMin= 4.38D-02 ExpMax= 8.59D+03 ExpMxC= 1.30D+03 IAcc=2 IRadAn=         4 AccDes= 0.00D+00
 Harris functional with IExCor= 1009 and IRadAn=       4 diagonalized for initial guess.
 HarFok:  IExCor= 1009 AccDes= 0.00D+00 IRadAn=         4 IDoV= 1 UseB2=F ITyADJ=14
 ICtDFT=  3500011 ScaDFX=  1.000000  1.000000  1.000000  1.000000
 FoFCou: FMM=F IPFlag=           0 FMFlag=      100000 FMFlg1=           0
         NFxFlg=           0 DoJE=T BraDBF=F KetDBF=T FulRan=T
         wScrn=  0.000000 ICntrl=       500 IOpCl=  0 I1Cent=   200000004 NGrid=           0
         NMat0=    1 NMatS0=      1 NMatT0=    0 NMatD0=    1 NMtDS0=    0 NMtDT0=    0
 Petite list used in FoFCou.
 Initial guess <Sx>= 0.0000 <Sy>= 0.0000 <Sz>= 0.5000 <S**2>= 0.7500 S= 0.5000
 Requested convergence on RMS density matrix=1.00D-08 within 128 cycles.
 Requested convergence on MAX density matrix=1.00D-06.
 Requested convergence on             energy=1.00D-06.
 No special actions if energy rises.
 Restarting incremental Fock formation.
 SCF Done:  E(UM062X) =  -575.961927926     A.U. after   21 cycles
            NFock= 21  Conv=0.94D-08     -V/T= 2.0034
 <Sx>= 0.0000 <Sy>= 0.0000 <Sz>= 0.5000 <S**2>= 0.7615 S= 0.5057
 <L.S>= 0.000000000000E+00
 Annihilation of the first spin contaminant:
 S**2 before annihilation     0.7615,   after     0.7501

 **********************************************************************

            Population analysis using the SCF density.

 **********************************************************************

 Orbital symmetries:
 Alpha Orbitals:
       Occupied  (A) (A) (A) (A) (A) (A) (A) (A) (A) (A) (A) (A)
                 (A) (A) (A) (A) (A) (A) (A) (A) (A) (A) (A) (A)
                 (A) (A) (A) (A) (A) (A) (A) (A) (A) (A) (A) (A)
                 (A) (A) (A) (A) (A) (A) (A) (A) (A) (A) (A)
       Virtual   (A) (A) (A) (A) (A) (A) (A) (A) (A) (A) (A) (A)
                 (A) (A) (A) (A) (A) (A) (A) (A) (A) (A) (A) (A)
                 (A) (A) (A) (A) (A) (A) (A) (A) (A) (A) (A) (A)
                 (A) (A) (A) (A) (A) (A) (A) (A) (A) (A) (A) (A)
                 (A) (A) (A) (A) (A) (A) (A) (A) (A) (A) (A) (A)
                 (A) (A) (A) (A) (A) (A) (A) (A) (A) (A) (A) (A)
                 (A) (A) (A) (A) (A) (A) (A) (A) (A) (A) (A) (A)
                 (A) (A) (A) (A) (A) (A) (A) (A) (A) (A) (A) (A)
                 (A) (A) (A) (A) (A) (A) (A) (A) (A) (A) (A) (A)
                 (A) (A) (A) (A) (A) (A) (A) (A) (A) (A) (A) (A)
                 (A) (A) (A) (A) (A) (A) (A) (A) (A) (A) (A) (A)
                 (A) (A) (A) (A) (A) (A) (A) (A) (A) (A) (A) (A)
                 (A) (A) (A) (A) (A) (A) (A) (A) (A) (A) (A) (A)
                 (A) (A) (A) (A) (A) (A) (A) (A) (A) (A) (A) (A)
                 (A) (A) (A) (A) (A) (A) (A) (A) (A) (A) (A) (A)
                 (A) (A) (A) (A) (A) (A) (A) (A) (A) (A) (A) (A)
                 (A) (A) (A) (A) (A) (A) (A) (A) (A) (A) (A) (A)
                 (A) (A) (A) (A) (A) (A) (A) (A) (A) (A) (A) (A)
                 (A) (A) (A) (A) (A) (A) (A) (A) (A) (A) (A) (A)
                 (A) (A) (A) (A) (A) (A) (A) (A) (A) (A) (A) (A)
                 (A) (A) (A) (A) (A) (A) (A) (A) (A) (A) (A) (A)
                 (A) (A) (A) (A) (A) (A) (A) (A) (A) (A) (A) (A)
                 (A) (A) (A) (A) (A) (A) (A) (A) (A) (A) (A) (A)
                 (A) (A) (A) (A) (A) (A) (A) (A) (A) (A) (A) (A)
                 (A) (A) (A) (A) (A) (A) (A) (A) (A) (A) (A) (A)
                 (A) (A) (A) (A) (A) (A) (A) (A) (A) (A) (A) (A)
                 (A) (A) (A) (A) (A) (A) (A) (A) (A) (A) (A) (A)
                 (A) (A) (A) (A) (A) (A) (A) (A) (A) (A) (A) (A)
                 (A) (A) (A) (A) (A) (A) (A) (A) (A) (A) (A) (A)
                 (A) (A) (A) (A) (A) (A) (A) (A) (A) (A) (A) (A)
                 (A) (A) (A) (A) (A) (A) (A) (A) (A) (A) (A) (A)
                 (A) (A) (A) (A) (A) (A) (A) (A) (A) (A) (A) (A)
                 (A) (A) (A) (A) (A) (A) (A) (A) (A) (A) (A) (A)
                 (A) (A) (A) (A) (A) (A) (A) (A) (A) (A) (A) (A)
                 (A) (A) (A) (A) (A) (A) (A) (A) (A) (A) (A) (A)
                 (A) (A) (A) (A) (A) (A) (A) (A) (A) (A) (A) (A)
                 (A) (A) (A) (A) (A) (A) (A) (A) (A) (A) (A) (A)
                 (A) (A) (A) (A) (A) (A) (A) (A) (A) (A) (A) (A)
                 (A) (A) (A) (A) (A) (A) (A) (A) (A) (A) (A) (A)
                 (A) (A) (A) (A) (A) (A) (A) (A) (A) (A) (A) (A)
                 (A) (A) (A) (A) (A) (A) (A) (A) (A) (A) (A)
 Beta  Orbitals:
       Occupied  (A) (A) (A) (A) (A) (A) (A) (A) (A) (A) (A) (A)
                 (A) (A) (A) (A) (A) (A) (A) (A) (A) (A) (A) (A)
                 (A) (A) (A) (A) (A) (A) (A) (A) (A) (A) (A) (A)
                 (A) (A) (A) (A) (A) (A) (A) (A) (A) (A)
       Virtual   (A) (A) (A) (A) (A) (A) (A) (A) (A) (A) (A) (A)
                 (A) (A) (A) (A) (A) (A) (A) (A) (A) (A) (A) (A)
                 (A) (A) (A) (A) (A) (A) (A) (A) (A) (A) (A) (A)
                 (A) (A) (A) (A) (A) (A) (A) (A) (A) (A) (A) (A)
                 (A) (A) (A) (A) (A) (A) (A) (A) (A) (A) (A) (A)
                 (A) (A) (A) (A) (A) (A) (A) (A) (A) (A) (A) (A)
                 (A) (A) (A) (A) (A) (A) (A) (A) (A) (A) (A) (A)
                 (A) (A) (A) (A) (A) (A) (A) (A) (A) (A) (A) (A)
                 (A) (A) (A) (A) (A) (A) (A) (A) (A) (A) (A) (A)
                 (A) (A) (A) (A) (A) (A) (A) (A) (A) (A) (A) (A)
                 (A) (A) (A) (A) (A) (A) (A) (A) (A) (A) (A) (A)
                 (A) (A) (A) (A) (A) (A) (A) (A) (A) (A) (A) (A)
                 (A) (A) (A) (A) (A) (A) (A) (A) (A) (A) (A) (A)
                 (A) (A) (A) (A) (A) (A) (A) (A) (A) (A) (A) (A)
                 (A) (A) (A) (A) (A) (A) (A) (A) (A) (A) (A) (A)
                 (A) (A) (A) (A) (A) (A) (A) (A) (A) (A) (A) (A)
                 (A) (A) (A) (A) (A) (A) (A) (A) (A) (A) (A) (A)
                 (A) (A) (A) (A) (A) (A) (A) (A) (A) (A) (A) (A)
                 (A) (A) (A) (A) (A) (A) (A) (A) (A) (A) (A) (A)
                 (A) (A) (A) (A) (A) (A) (A) (A) (A) (A) (A) (A)
                 (A) (A) (A) (A) (A) (A) (A) (A) (A) (A) (A) (A)
                 (A) (A) (A) (A) (A) (A) (A) (A) (A) (A) (A) (A)
                 (A) (A) (A) (A) (A) (A) (A) (A) (A) (A) (A) (A)
                 (A) (A) (A) (A) (A) (A) (A) (A) (A) (A) (A) (A)
                 (A) (A) (A) (A) (A) (A) (A) (A) (A) (A) (A) (A)
                 (A) (A) (A) (A) (A) (A) (A) (A) (A) (A) (A) (A)
                 (A) (A) (A) (A) (A) (A) (A) (A) (A) (A) (A) (A)
                 (A) (A) (A) (A) (A) (A) (A) (A) (A) (A) (A) (A)
                 (A) (A) (A) (A) (A) (A) (A) (A) (A) (A) (A) (A)
                 (A) (A) (A) (A) (A) (A) (A) (A) (A) (A) (A) (A)
                 (A) (A) (A) (A) (A) (A) (A) (A) (A) (A) (A) (A)
                 (A) (A) (A) (A) (A) (A) (A) (A) (A) (A) (A) (A)
                 (A) (A) (A) (A) (A) (A) (A) (A) (A) (A) (A) (A)
                 (A) (A) (A) (A) (A) (A) (A) (A) (A) (A) (A) (A)
                 (A) (A) (A) (A) (A) (A) (A) (A) (A) (A) (A) (A)
                 (A) (A) (A) (A) (A) (A) (A) (A) (A) (A) (A) (A)
                 (A) (A) (A) (A) (A) (A) (A) (A) (A) (A) (A) (A)
                 (A) (A) (A) (A) (A) (A) (A) (A) (A) (A) (A) (A)
                 (A) (A) (A) (A) (A) (A) (A) (A) (A) (A) (A) (A)
                 (A) (A) (A) (A) (A) (A) (A) (A) (A) (A) (A) (A)
                 (A) (A) (A) (A) (A) (A) (A) (A) (A) (A) (A) (A)
 The electronic state is 2-A.
 Alpha  occ. eigenvalues --  -19.71726 -19.71372 -10.55989 -10.55192 -10.54957
 Alpha  occ. eigenvalues --  -10.54825 -10.54770 -10.54733 -10.54717 -10.54606
 Alpha  occ. eigenvalues --  -10.54444 -10.54363 -10.54313  -1.25817  -1.05304
 Alpha  occ. eigenvalues --   -0.99313  -0.93048  -0.89358  -0.84556  -0.83455
 Alpha  occ. eigenvalues --   -0.78631  -0.71659  -0.69985  -0.68093  -0.63914
 Alpha  occ. eigenvalues --   -0.59518  -0.58590  -0.57876  -0.56831  -0.54371
 Alpha  occ. eigenvalues --   -0.51913  -0.50976  -0.50801  -0.48698  -0.47974
 Alpha  occ. eigenvalues --   -0.46442  -0.46158  -0.43541  -0.42734  -0.41257
 Alpha  occ. eigenvalues --   -0.39685  -0.39566  -0.39111  -0.34925  -0.34266
 Alpha  occ. eigenvalues --   -0.30532  -0.26284
 Alpha virt. eigenvalues --   -0.02626   0.00779   0.01005   0.01474   0.01770
 Alpha virt. eigenvalues --    0.02857   0.03449   0.03978   0.04457   0.05084
 Alpha virt. eigenvalues --    0.05788   0.06112   0.06964   0.07425   0.07873
 Alpha virt. eigenvalues --    0.08813   0.09198   0.09707   0.10254   0.10987
 Alpha virt. eigenvalues --    0.11457   0.11554   0.13280   0.13752   0.13972
 Alpha virt. eigenvalues --    0.14374   0.14947   0.15534   0.15809   0.16353
 Alpha virt. eigenvalues --    0.17553   0.18096   0.18346   0.18414   0.18864
 Alpha virt. eigenvalues --    0.19183   0.19591   0.20217   0.20966   0.21545
 Alpha virt. eigenvalues --    0.21956   0.22388   0.22585   0.22926   0.23029
 Alpha virt. eigenvalues --    0.23534   0.24196   0.24451   0.24721   0.25679
 Alpha virt. eigenvalues --    0.26383   0.26575   0.26874   0.27066   0.27866
 Alpha virt. eigenvalues --    0.28504   0.29238   0.29734   0.30734   0.31396
 Alpha virt. eigenvalues --    0.31780   0.32178   0.32599   0.32674   0.34306
 Alpha virt. eigenvalues --    0.35182   0.36065   0.36455   0.36867   0.37741
 Alpha virt. eigenvalues --    0.39281   0.39556   0.43378   0.44410   0.46431
 Alpha virt. eigenvalues --    0.48572   0.49694   0.50384   0.51220   0.52244
 Alpha virt. eigenvalues --    0.52679   0.53183   0.54160   0.54832   0.55224
 Alpha virt. eigenvalues --    0.56183   0.56533   0.56745   0.57498   0.58205
 Alpha virt. eigenvalues --    0.58535   0.59920   0.60060   0.60750   0.60928
 Alpha virt. eigenvalues --    0.61604   0.62118   0.63006   0.64491   0.64801
 Alpha virt. eigenvalues --    0.65802   0.67443   0.67789   0.67832   0.68461
 Alpha virt. eigenvalues --    0.68730   0.68905   0.69436   0.69700   0.70301
 Alpha virt. eigenvalues --    0.71800   0.72465   0.72746   0.73511   0.74102
 Alpha virt. eigenvalues --    0.74405   0.75235   0.75649   0.75962   0.76384
 Alpha virt. eigenvalues --    0.76699   0.78246   0.79002   0.79426   0.80280
 Alpha virt. eigenvalues --    0.82069   0.83001   0.83461   0.84256   0.85846
 Alpha virt. eigenvalues --    0.86498   0.87291   0.88866   0.89689   0.90355
 Alpha virt. eigenvalues --    0.90739   0.91743   0.94420   0.94916   0.95372
 Alpha virt. eigenvalues --    0.96163   0.98941   0.99459   0.99944   1.02657
 Alpha virt. eigenvalues --    1.03816   1.04084   1.04547   1.04946   1.06281
 Alpha virt. eigenvalues --    1.07114   1.07576   1.09411   1.11058   1.11315
 Alpha virt. eigenvalues --    1.12501   1.13425   1.14014   1.15256   1.16303
 Alpha virt. eigenvalues --    1.17424   1.18157   1.19370   1.20664   1.21545
 Alpha virt. eigenvalues --    1.21927   1.22438   1.23857   1.25905   1.26841
 Alpha virt. eigenvalues --    1.27404   1.28429   1.29941   1.30253   1.32037
 Alpha virt. eigenvalues --    1.32814   1.33474   1.33829   1.35198   1.35471
 Alpha virt. eigenvalues --    1.36761   1.36808   1.37206   1.37808   1.38410
 Alpha virt. eigenvalues --    1.40206   1.40732   1.41209   1.42227   1.43548
 Alpha virt. eigenvalues --    1.44452   1.45791   1.45928   1.47492   1.48654
 Alpha virt. eigenvalues --    1.49000   1.50300   1.51930   1.53053   1.53658
 Alpha virt. eigenvalues --    1.54741   1.56000   1.56826   1.58624   1.60582
 Alpha virt. eigenvalues --    1.63825   1.65485   1.66162   1.68307   1.71081
 Alpha virt. eigenvalues --    1.72235   1.73913   1.75619   1.76182   1.76929
 Alpha virt. eigenvalues --    1.77315   1.77962   1.79640   1.80996   1.83900
 Alpha virt. eigenvalues --    1.88314   1.89077   1.91837   1.93336   1.93808
 Alpha virt. eigenvalues --    1.96711   2.01844   2.03968   2.05279   2.06719
 Alpha virt. eigenvalues --    2.10156   2.15163   2.18515   2.24763   2.29291
 Alpha virt. eigenvalues --    2.30165   2.41962   2.43204   2.45401   2.48696
 Alpha virt. eigenvalues --    2.54507   2.56381   2.57214   2.60221   2.63152
 Alpha virt. eigenvalues --    2.64081   2.64812   2.66096   2.67940   2.69548
 Alpha virt. eigenvalues --    2.69929   2.73833   2.74778   2.75533   2.76282
 Alpha virt. eigenvalues --    2.76607   2.76975   2.77393   2.79000   2.79472
 Alpha virt. eigenvalues --    2.80049   2.81688   2.82411   2.83655   2.84182
 Alpha virt. eigenvalues --    2.84550   2.84691   2.86117   2.86982   2.87438
 Alpha virt. eigenvalues --    2.87861   2.88671   2.89024   2.89729   2.90636
 Alpha virt. eigenvalues --    2.90997   2.92408   2.92778   2.94073   2.96496
 Alpha virt. eigenvalues --    2.99070   3.00154   3.02579   3.03493   3.05370
 Alpha virt. eigenvalues --    3.06192   3.09129   3.09832   3.12234   3.12645
 Alpha virt. eigenvalues --    3.13139   3.13531   3.14135   3.14193   3.14914
 Alpha virt. eigenvalues --    3.16026   3.17663   3.18025   3.18370   3.19899
 Alpha virt. eigenvalues --    3.20355   3.21384   3.22799   3.23875   3.24170
 Alpha virt. eigenvalues --    3.25284   3.25858   3.27619   3.28583   3.29752
 Alpha virt. eigenvalues --    3.30723   3.32148   3.32798   3.34107   3.34395
 Alpha virt. eigenvalues --    3.34919   3.36858   3.39388   3.39860   3.41351
 Alpha virt. eigenvalues --    3.42266   3.43672   3.44776   3.46268   3.46647
 Alpha virt. eigenvalues --    3.47138   3.50043   3.50130   3.51610   3.52493
 Alpha virt. eigenvalues --    3.53942   3.54581   3.55752   3.56238   3.56691
 Alpha virt. eigenvalues --    3.57074   3.58818   3.60962   3.63279   3.65777
 Alpha virt. eigenvalues --    3.66176   3.67689   3.68955   3.69581   3.70898
 Alpha virt. eigenvalues --    3.73250   3.74150   3.74870   3.75334   3.76163
 Alpha virt. eigenvalues --    3.76776   3.78093   3.78732   3.79421   3.81397
 Alpha virt. eigenvalues --    3.83602   3.85051   3.85502   3.87465   3.89299
 Alpha virt. eigenvalues --    3.90806   3.94255   3.94769   3.95800   3.97596
 Alpha virt. eigenvalues --    3.98782   3.99564   4.00129   4.03020   4.05339
 Alpha virt. eigenvalues --    4.06517   4.07206   4.08259   4.10263   4.11099
 Alpha virt. eigenvalues --    4.12448   4.14490   4.16669   4.17764   4.19078
 Alpha virt. eigenvalues --    4.21567   4.22131   4.24248   4.25292   4.26986
 Alpha virt. eigenvalues --    4.28693   4.29289   4.31513   4.32300   4.34465
 Alpha virt. eigenvalues --    4.35250   4.36737   4.37884   4.38409   4.39548
 Alpha virt. eigenvalues --    4.40074   4.40762   4.43158   4.43947   4.45610
 Alpha virt. eigenvalues --    4.47465   4.48248   4.49047   4.50463   4.51693
 Alpha virt. eigenvalues --    4.53024   4.53417   4.56437   4.57279   4.58814
 Alpha virt. eigenvalues --    4.60050   4.60815   4.62168   4.63618   4.64942
 Alpha virt. eigenvalues --    4.66779   4.70350   4.74405   4.78961   4.80028
 Alpha virt. eigenvalues --    4.80839   4.87279   4.87765   4.89800   4.95228
 Alpha virt. eigenvalues --    4.96259   4.97071   4.98912   5.01881   5.04679
 Alpha virt. eigenvalues --    5.07705   5.08099   5.10031   5.11424   5.12019
 Alpha virt. eigenvalues --    5.14441   5.16559   5.18050   5.21955   5.25550
 Alpha virt. eigenvalues --    5.26253   5.27246   5.31508   5.38973   5.41040
 Alpha virt. eigenvalues --    5.46626   5.48024   5.50247   5.53156   5.54986
 Alpha virt. eigenvalues --    5.59317   5.59683   5.61825   5.67583   5.73467
 Alpha virt. eigenvalues --    5.74549   5.76760   5.82956   5.87300   5.90917
 Alpha virt. eigenvalues --    5.98213   6.04641   6.15802   6.45717   6.55818
 Alpha virt. eigenvalues --    6.57532   6.72191   6.76436   6.86241   6.91626
 Alpha virt. eigenvalues --    6.97802   7.03865   7.18151   7.24625   7.38333
 Alpha virt. eigenvalues --    7.49941   7.74662   8.05706  23.90811  24.22199
 Alpha virt. eigenvalues --   24.51755  24.59721  24.63103  24.67722  24.69594
 Alpha virt. eigenvalues --   24.78928  24.85622  25.09706  25.26608  49.97163
 Alpha virt. eigenvalues --   49.98922
  Beta  occ. eigenvalues --  -19.71349 -19.70113 -10.56004 -10.55175 -10.54956
  Beta  occ. eigenvalues --  -10.54822 -10.54769 -10.54732 -10.54606 -10.54444
  Beta  occ. eigenvalues --  -10.54361 -10.54354 -10.54308  -1.23129  -1.01571
  Beta  occ. eigenvalues --   -0.99219  -0.92965  -0.89070  -0.84533  -0.82864
  Beta  occ. eigenvalues --   -0.77804  -0.71565  -0.69875  -0.67322  -0.62481
  Beta  occ. eigenvalues --   -0.59252  -0.58327  -0.57071  -0.56209  -0.51881
  Beta  occ. eigenvalues --   -0.50828  -0.50578  -0.48616  -0.48000  -0.47144
  Beta  occ. eigenvalues --   -0.46212  -0.45939  -0.43462  -0.40120  -0.39752
  Beta  occ. eigenvalues --   -0.39394  -0.38745  -0.37786  -0.34459  -0.30517
  Beta  occ. eigenvalues --   -0.26288
  Beta virt. eigenvalues --   -0.10606  -0.02615   0.00930   0.01031   0.01764
  Beta virt. eigenvalues --    0.01775   0.03088   0.03494   0.03989   0.04565
  Beta virt. eigenvalues --    0.05587   0.05906   0.06172   0.07332   0.07474
  Beta virt. eigenvalues --    0.08063   0.08961   0.09289   0.09788   0.10437
  Beta virt. eigenvalues --    0.11014   0.11534   0.11684   0.13322   0.13838
  Beta virt. eigenvalues --    0.14010   0.14458   0.15088   0.15571   0.15859
  Beta virt. eigenvalues --    0.16434   0.17623   0.18162   0.18390   0.18465
  Beta virt. eigenvalues --    0.18889   0.19324   0.19636   0.20318   0.21164
  Beta virt. eigenvalues --    0.21621   0.22007   0.22447   0.22695   0.22965
  Beta virt. eigenvalues --    0.23043   0.23622   0.24305   0.24486   0.24791
  Beta virt. eigenvalues --    0.25703   0.26550   0.26669   0.26933   0.27206
  Beta virt. eigenvalues --    0.27949   0.28580   0.29271   0.29844   0.30844
  Beta virt. eigenvalues --    0.31579   0.31891   0.32347   0.32713   0.32916
  Beta virt. eigenvalues --    0.34421   0.35238   0.36157   0.36487   0.36882
  Beta virt. eigenvalues --    0.37752   0.39309   0.39584   0.43423   0.44500
  Beta virt. eigenvalues --    0.46654   0.48662   0.49863   0.50489   0.51369
  Beta virt. eigenvalues --    0.52342   0.52750   0.53327   0.54154   0.54872
  Beta virt. eigenvalues --    0.55300   0.56247   0.56594   0.56787   0.57620
  Beta virt. eigenvalues --    0.58268   0.58667   0.59981   0.60189   0.60790
  Beta virt. eigenvalues --    0.61027   0.61636   0.62219   0.63204   0.64515
  Beta virt. eigenvalues --    0.64842   0.65838   0.67484   0.67823   0.67879
  Beta virt. eigenvalues --    0.68482   0.68767   0.68963   0.69606   0.69753
  Beta virt. eigenvalues --    0.70359   0.71869   0.72591   0.72926   0.73668
  Beta virt. eigenvalues --    0.74124   0.74427   0.75302   0.75764   0.76059
  Beta virt. eigenvalues --    0.76433   0.76817   0.78382   0.79071   0.79452
  Beta virt. eigenvalues --    0.80433   0.82255   0.83043   0.83537   0.84422
  Beta virt. eigenvalues --    0.85932   0.86550   0.87382   0.88930   0.89885
  Beta virt. eigenvalues --    0.90396   0.90775   0.91866   0.94475   0.95032
  Beta virt. eigenvalues --    0.95773   0.96407   0.99010   0.99650   1.00032
  Beta virt. eigenvalues --    1.02808   1.03903   1.04228   1.04726   1.05076
  Beta virt. eigenvalues --    1.06738   1.07151   1.07928   1.09535   1.11140
  Beta virt. eigenvalues --    1.11789   1.12544   1.13594   1.14451   1.15250
  Beta virt. eigenvalues --    1.16787   1.17563   1.18397   1.19816   1.20816
  Beta virt. eigenvalues --    1.21596   1.22034   1.23125   1.24141   1.26054
  Beta virt. eigenvalues --    1.26942   1.27513   1.28614   1.30178   1.30428
  Beta virt. eigenvalues --    1.32274   1.32846   1.33650   1.34009   1.35237
  Beta virt. eigenvalues --    1.35655   1.36815   1.36992   1.37265   1.38032
  Beta virt. eigenvalues --    1.38539   1.40257   1.40902   1.41231   1.42300
  Beta virt. eigenvalues --    1.43678   1.44617   1.46046   1.46271   1.47909
  Beta virt. eigenvalues --    1.48741   1.49168   1.50460   1.52109   1.53115
  Beta virt. eigenvalues --    1.53852   1.55161   1.56300   1.57108   1.58945
  Beta virt. eigenvalues --    1.60845   1.64268   1.66000   1.66690   1.68387
  Beta virt. eigenvalues --    1.71132   1.72317   1.73977   1.75792   1.76286
  Beta virt. eigenvalues --    1.76983   1.77354   1.78040   1.79815   1.81132
  Beta virt. eigenvalues --    1.84070   1.88833   1.89265   1.92105   1.93400
  Beta virt. eigenvalues --    1.94229   1.97161   2.01952   2.04211   2.05625
  Beta virt. eigenvalues --    2.06805   2.10307   2.15625   2.19255   2.25165
  Beta virt. eigenvalues --    2.29937   2.30583   2.42357   2.43716   2.46355
  Beta virt. eigenvalues --    2.48749   2.54534   2.56377   2.57271   2.60523
  Beta virt. eigenvalues --    2.63171   2.64072   2.64783   2.65662   2.68017
  Beta virt. eigenvalues --    2.69549   2.69962   2.74024   2.74890   2.75553
  Beta virt. eigenvalues --    2.76349   2.76725   2.76955   2.77353   2.78974
  Beta virt. eigenvalues --    2.79278   2.80105   2.81699   2.82212   2.83461
  Beta virt. eigenvalues --    2.84214   2.84606   2.84734   2.86123   2.87023
  Beta virt. eigenvalues --    2.87470   2.87863   2.88684   2.89143   2.89738
  Beta virt. eigenvalues --    2.90658   2.91043   2.92425   2.92779   2.94079
  Beta virt. eigenvalues --    2.96578   2.99150   3.00187   3.02755   3.03545
  Beta virt. eigenvalues --    3.05626   3.06332   3.09352   3.10151   3.12251
  Beta virt. eigenvalues --    3.12746   3.13172   3.13773   3.14185   3.14202
  Beta virt. eigenvalues --    3.14945   3.16116   3.17714   3.18104   3.18501
  Beta virt. eigenvalues --    3.19933   3.20475   3.21478   3.22988   3.23925
  Beta virt. eigenvalues --    3.24256   3.25356   3.26104   3.27814   3.28669
  Beta virt. eigenvalues --    3.30191   3.30867   3.32089   3.32968   3.34291
  Beta virt. eigenvalues --    3.34496   3.35148   3.37070   3.39437   3.39955
  Beta virt. eigenvalues --    3.41475   3.42311   3.43746   3.44898   3.46375
  Beta virt. eigenvalues --    3.46798   3.47292   3.50126   3.50165   3.51638
  Beta virt. eigenvalues --    3.52630   3.54042   3.54799   3.55880   3.56306
  Beta virt. eigenvalues --    3.57175   3.57844   3.59110   3.61424   3.63660
  Beta virt. eigenvalues --    3.65814   3.66938   3.68066   3.69090   3.69683
  Beta virt. eigenvalues --    3.70907   3.73487   3.74379   3.74942   3.75465
  Beta virt. eigenvalues --    3.76277   3.76805   3.78178   3.79017   3.79657
  Beta virt. eigenvalues --    3.81492   3.83700   3.85511   3.85713   3.87635
  Beta virt. eigenvalues --    3.89423   3.90876   3.94670   3.94897   3.95870
  Beta virt. eigenvalues --    3.97904   3.98969   4.00011   4.00204   4.03197
  Beta virt. eigenvalues --    4.05608   4.06594   4.07337   4.08293   4.10351
  Beta virt. eigenvalues --    4.11162   4.12637   4.14657   4.16733   4.17866
  Beta virt. eigenvalues --    4.19169   4.21671   4.22262   4.24233   4.25399
  Beta virt. eigenvalues --    4.27148   4.28889   4.29463   4.31595   4.32556
  Beta virt. eigenvalues --    4.34628   4.35306   4.36856   4.38076   4.38449
  Beta virt. eigenvalues --    4.39595   4.40111   4.40879   4.43250   4.44054
  Beta virt. eigenvalues --    4.45741   4.47562   4.48320   4.49091   4.50528
  Beta virt. eigenvalues --    4.51783   4.53082   4.53462   4.56647   4.57547
  Beta virt. eigenvalues --    4.58853   4.60222   4.60904   4.62461   4.63855
  Beta virt. eigenvalues --    4.65189   4.67212   4.70620   4.74411   4.79078
  Beta virt. eigenvalues --    4.80094   4.80936   4.87217   4.88226   4.90342
  Beta virt. eigenvalues --    4.95613   4.96304   4.97273   4.98946   5.02800
  Beta virt. eigenvalues --    5.06464   5.08170   5.09198   5.10290   5.12425
  Beta virt. eigenvalues --    5.12649   5.14984   5.16901   5.18304   5.22474
  Beta virt. eigenvalues --    5.25801   5.26786   5.29597   5.31636   5.39391
  Beta virt. eigenvalues --    5.41553   5.47334   5.48238   5.50402   5.53435
  Beta virt. eigenvalues --    5.55739   5.59620   5.60378   5.63053   5.68060
  Beta virt. eigenvalues --    5.73511   5.74557   5.76760   5.83064   5.87580
  Beta virt. eigenvalues --    5.90945   5.99001   6.04720   6.15843   6.45716
  Beta virt. eigenvalues --    6.55855   6.58359   6.76970   6.81100   6.86925
  Beta virt. eigenvalues --    6.92699   7.01002   7.05599   7.18618   7.26186
  Beta virt. eigenvalues --    7.39366   7.54698   7.76081   8.06832  23.90812
  Beta virt. eigenvalues --   24.22200  24.52016  24.59740  24.63122  24.67731
  Beta virt. eigenvalues --   24.69631  24.78938  24.85620  25.09706  25.26609
  Beta virt. eigenvalues --   49.97009  49.98359
          Condensed to atoms (all electrons):
               1          2          3          4          5          6
     1  C   11.736596  -2.402601  -0.102751   0.393159   0.747554   0.055871
     2  C   -2.402601   9.107545  -1.596057   0.048355  -1.132937   0.296493
     3  C   -0.102751  -1.596057   9.118365  -0.123152   1.496662   0.023935
     4  H    0.393159   0.048355  -0.123152   0.465058   0.041450  -0.006572
     5  C    0.747554  -1.132937   1.496662   0.041450  12.206136   0.025670
     6  H    0.055871   0.296493   0.023935  -0.006572   0.025670   0.483324
     7  C    1.008145  -0.588034   0.452093  -0.024797  -1.720234   0.022852
     8  H    0.004393   0.035046  -0.034213  -0.000132   0.344020  -0.006989
     9  C   -3.990239   2.602017  -1.368990  -0.007338  -6.211190  -0.058407
    10  C   -1.114112   0.442674  -0.395317  -0.002966  -0.041073  -0.000261
    11  C   -0.263142   0.251507  -0.237615   0.001267   0.084915  -0.001487
    12  H    0.020011   0.000806   0.029801  -0.000018   0.002134  -0.000002
    13  C    0.231213  -0.449429  -0.204230   0.003301   0.586000   0.008905
    14  C    0.014783  -0.241242  -0.351956  -0.001535  -0.733493   0.001119
    15  H    0.011996   0.010687  -0.007144  -0.000003   0.080683  -0.000009
    16  H   -0.000893  -0.001267  -0.001051  -0.000001   0.006124   0.000000
    17  H    0.000578  -0.001438   0.007863   0.000000   0.012525  -0.000001
    18  C    0.077103   0.166170  -1.025144   0.032691   0.270765   0.003533
    19  H    0.110738  -0.012418  -0.066523   0.009871   0.029494  -0.000111
    20  H   -0.036340   0.019061  -0.092390   0.000637  -0.007725   0.000001
    21  H    0.028845  -0.019610  -0.003381  -0.000389   0.009431   0.000013
    22  O   -0.181150  -0.006794   0.207292  -0.003382  -0.023373   0.000098
    23  O   -0.026881  -0.003546   0.036593  -0.005040  -0.008520   0.000046
    24  H   -0.007109   0.001369   0.011642   0.000031   0.000163   0.000001
               7          8          9         10         11         12
     1  C    1.008145   0.004393  -3.990239  -1.114112  -0.263142   0.020011
     2  C   -0.588034   0.035046   2.602017   0.442674   0.251507   0.000806
     3  C    0.452093  -0.034213  -1.368990  -0.395317  -0.237615   0.029801
     4  H   -0.024797  -0.000132  -0.007338  -0.002966   0.001267  -0.000018
     5  C   -1.720234   0.344020  -6.211190  -0.041073   0.084915   0.002134
     6  H    0.022852  -0.006989  -0.058407  -0.000261  -0.001487  -0.000002
     7  C    9.234142  -0.061200  -0.701587   0.264322  -0.120115  -0.010216
     8  H   -0.061200   0.482683   0.010615   0.008980   0.001612   0.000013
     9  C   -0.701587   0.010615  17.349573  -1.045677  -0.305586   0.004776
    10  C    0.264322   0.008980  -1.045677   8.011507  -0.396755   0.324548
    11  C   -0.120115   0.001612  -0.305586  -0.396755   7.623878  -0.022382
    12  H   -0.010216   0.000013   0.004776   0.324548  -0.022382   0.476629
    13  C   -0.345975   0.053115  -1.868980   0.784121  -0.733152  -0.024249
    14  C   -0.734844   0.008274   1.236594  -0.356060   0.190586  -0.000280
    15  H   -0.121470   0.002487  -0.052228  -0.003681   0.005517   0.000039
    16  H   -0.003058  -0.000003   0.034542  -0.042614   0.358987  -0.006417
    17  H    0.034919  -0.000015  -0.034632   0.026207   0.023823  -0.000111
    18  C   -0.743853  -0.001869  -0.218687  -0.340727  -0.024677   0.040359
    19  H    0.006291   0.000002  -0.071241  -0.033181  -0.000786   0.000877
    20  H   -0.025535  -0.000001   0.040932   0.023375   0.010217  -0.004717
    21  H    0.021337  -0.000001  -0.047543  -0.018509  -0.002384  -0.002747
    22  O    0.010366  -0.000000   0.076286   0.019154  -0.005146  -0.000115
    23  O   -0.002466  -0.000000   0.018784   0.009452   0.001123   0.000009
    24  H   -0.000054   0.000000   0.000061   0.001232   0.000163  -0.000002
              13         14         15         16         17         18
     1  C    0.231213   0.014783   0.011996  -0.000893   0.000578   0.077103
     2  C   -0.449429  -0.241242   0.010687  -0.001267  -0.001438   0.166170
     3  C   -0.204230  -0.351956  -0.007144  -0.001051   0.007863  -1.025144
     4  H    0.003301  -0.001535  -0.000003  -0.000001   0.000000   0.032691
     5  C    0.586000  -0.733493   0.080683   0.006124   0.012525   0.270765
     6  H    0.008905   0.001119  -0.000009   0.000000  -0.000001   0.003533
     7  C   -0.345975  -0.734844  -0.121470  -0.003058   0.034919  -0.743853
     8  H    0.053115   0.008274   0.002487  -0.000003  -0.000015  -0.001869
     9  C   -1.868980   1.236594  -0.052228   0.034542  -0.034632  -0.218687
    10  C    0.784121  -0.356060  -0.003681  -0.042614   0.026207  -0.340727
    11  C   -0.733152   0.190586   0.005517   0.358987   0.023823  -0.024677
    12  H   -0.024249  -0.000280   0.000039  -0.006417  -0.000111   0.040359
    13  C    6.863162   0.733841   0.445997   0.008592  -0.047479  -0.037530
    14  C    0.733841   6.260202   0.000011   0.018506   0.355651  -0.020586
    15  H    0.445997   0.000011   0.484278  -0.000113  -0.006437  -0.001595
    16  H    0.008592   0.018506  -0.000113   0.482938  -0.006736   0.001925
    17  H   -0.047479   0.355651  -0.006437  -0.006736   0.485315   0.000170
    18  C   -0.037530  -0.020586  -0.001595   0.001925   0.000170   7.786751
    19  H   -0.000216  -0.001572   0.000000  -0.000004   0.000000   0.270994
    20  H   -0.000362  -0.000391  -0.000001   0.000022   0.000000   0.413223
    21  H   -0.000847  -0.001303  -0.000000   0.000015   0.000000   0.388363
    22  O    0.001175   0.000919   0.000000   0.000001  -0.000000  -0.147274
    23  O   -0.000394   0.000176  -0.000000  -0.000000  -0.000000   0.031699
    24  H   -0.000044   0.000029   0.000000   0.000000  -0.000000  -0.010107
              19         20         21         22         23         24
     1  C    0.110738  -0.036340   0.028845  -0.181150  -0.026881  -0.007109
     2  C   -0.012418   0.019061  -0.019610  -0.006794  -0.003546   0.001369
     3  C   -0.066523  -0.092390  -0.003381   0.207292   0.036593   0.011642
     4  H    0.009871   0.000637  -0.000389  -0.003382  -0.005040   0.000031
     5  C    0.029494  -0.007725   0.009431  -0.023373  -0.008520   0.000163
     6  H   -0.000111   0.000001   0.000013   0.000098   0.000046   0.000001
     7  C    0.006291  -0.025535   0.021337   0.010366  -0.002466  -0.000054
     8  H    0.000002  -0.000001  -0.000001  -0.000000  -0.000000   0.000000
     9  C   -0.071241   0.040932  -0.047543   0.076286   0.018784   0.000061
    10  C   -0.033181   0.023375  -0.018509   0.019154   0.009452   0.001232
    11  C   -0.000786   0.010217  -0.002384  -0.005146   0.001123   0.000163
    12  H    0.000877  -0.004717  -0.002747  -0.000115   0.000009  -0.000002
    13  C   -0.000216  -0.000362  -0.000847   0.001175  -0.000394  -0.000044
    14  C   -0.001572  -0.000391  -0.001303   0.000919   0.000176   0.000029
    15  H    0.000000  -0.000001  -0.000000   0.000000  -0.000000   0.000000
    16  H   -0.000004   0.000022   0.000015   0.000001  -0.000000   0.000000
    17  H    0.000000   0.000000   0.000000  -0.000000  -0.000000  -0.000000
    18  C    0.270994   0.413223   0.388363  -0.147274   0.031699  -0.010107
    19  H    0.398127   0.002256  -0.026816  -0.077009  -0.011438   0.004104
    20  H    0.002256   0.534646  -0.043556  -0.009048  -0.002678   0.000801
    21  H   -0.026816  -0.043556   0.495265   0.015977  -0.000296  -0.000087
    22  O   -0.077009  -0.009048   0.015977   8.313639   0.078424  -0.034996
    23  O   -0.011438  -0.002678  -0.000296   0.078424   7.849571   0.240303
    24  H    0.004104   0.000801  -0.000087  -0.034996   0.240303   0.528903
          Atomic-Atomic Spin Densities.
               1          2          3          4          5          6
     1  C   -0.056155  -0.036310   0.078448  -0.010801   0.073673   0.001365
     2  C   -0.036310   0.041230  -0.004355   0.002197  -0.122974  -0.000217
     3  C    0.078448  -0.004355  -0.052055   0.009368   0.070857  -0.000511
     4  H   -0.010801   0.002197   0.009368   0.000698  -0.002359  -0.000057
     5  C    0.073673  -0.122974   0.070857  -0.002359   0.273779   0.000974
     6  H    0.001365  -0.000217  -0.000511  -0.000057   0.000974   0.000132
     7  C   -0.045169   0.040138   0.015345   0.000880  -0.048485  -0.000632
     8  H    0.000414   0.000712   0.000006   0.000003  -0.000375   0.000017
     9  C   -0.062576   0.082567  -0.109789   0.005091  -0.195422  -0.000943
    10  C    0.038617   0.015241  -0.064868   0.001227  -0.021211  -0.000111
    11  C    0.060864  -0.032427   0.092855   0.000055   0.075474   0.000019
    12  H   -0.001405   0.000190  -0.000616   0.000000  -0.000746  -0.000000
    13  C   -0.041998   0.037746  -0.044953  -0.000012  -0.077093  -0.000018
    14  C    0.000165   0.005391   0.005633   0.000048  -0.015315  -0.000019
    15  H    0.000120   0.000029   0.000146   0.000000   0.001000   0.000001
    16  H    0.000022   0.000007   0.000070   0.000000   0.000081   0.000000
    17  H    0.000009  -0.000014   0.000020  -0.000000   0.000094   0.000000
    18  C    0.012131  -0.016401  -0.065892  -0.004899  -0.010223   0.000091
    19  H   -0.008153  -0.006964   0.009439  -0.001848   0.003680   0.000015
    20  H   -0.004249  -0.001424   0.007199   0.000029   0.000086   0.000000
    21  H    0.011636  -0.000510   0.000894  -0.000007   0.000406   0.000000
    22  O   -0.000652   0.001673   0.032145   0.001473  -0.005894  -0.000001
    23  O    0.014297   0.006130  -0.031348  -0.000277   0.001971  -0.000014
    24  H   -0.001133   0.000008   0.001289   0.000004  -0.000012   0.000000
               7          8          9         10         11         12
     1  C   -0.045169   0.000414  -0.062576   0.038617   0.060864  -0.001405
     2  C    0.040138   0.000712   0.082567   0.015241  -0.032427   0.000190
     3  C    0.015345   0.000006  -0.109789  -0.064868   0.092855  -0.000616
     4  H    0.000880   0.000003   0.005091   0.001227   0.000055   0.000000
     5  C   -0.048485  -0.000375  -0.195422  -0.021211   0.075474  -0.000746
     6  H   -0.000632   0.000017  -0.000943  -0.000111   0.000019  -0.000000
     7  C    0.070722  -0.000901  -0.010827  -0.050836   0.068676  -0.000894
     8  H   -0.000901  -0.000185  -0.000519   0.000122  -0.000178  -0.000000
     9  C   -0.010827  -0.000519   0.296628   0.043473  -0.167262   0.005676
    10  C   -0.050836   0.000122   0.043473   0.096738  -0.136325   0.003443
    11  C    0.068676  -0.000178  -0.167262  -0.136325   0.127623  -0.002264
    12  H   -0.000894  -0.000000   0.005676   0.003443  -0.002264  -0.003977
    13  C   -0.027036   0.000667   0.098464   0.058049  -0.055672   0.000238
    14  C   -0.016067   0.000064   0.034824   0.005380  -0.020331   0.000094
    15  H   -0.000581   0.000006  -0.000927   0.000029   0.000135  -0.000001
    16  H    0.000177   0.000000  -0.000450   0.000180  -0.000282   0.000086
    17  H    0.000246   0.000000  -0.000200  -0.000265   0.000208   0.000000
    18  C    0.002510  -0.000006  -0.013618   0.019091  -0.013888  -0.004507
    19  H   -0.005672  -0.000001  -0.009149   0.010566   0.004576  -0.000070
    20  H    0.001917   0.000000   0.000113   0.002450  -0.000622   0.000330
    21  H    0.004652   0.000000  -0.006455  -0.007255  -0.003252   0.000080
    22  O    0.007960   0.000002   0.009434  -0.011305  -0.003900  -0.000019
    23  O   -0.001223  -0.000000  -0.003740  -0.000687   0.000114   0.000005
    24  H   -0.000027  -0.000000   0.000143   0.000076   0.000006   0.000000
              13         14         15         16         17         18
     1  C   -0.041998   0.000165   0.000120   0.000022   0.000009   0.012131
     2  C    0.037746   0.005391   0.000029   0.000007  -0.000014  -0.016401
     3  C   -0.044953   0.005633   0.000146   0.000070   0.000020  -0.065892
     4  H   -0.000012   0.000048   0.000000   0.000000  -0.000000  -0.004899
     5  C   -0.077093  -0.015315   0.001000   0.000081   0.000094  -0.010223
     6  H   -0.000018  -0.000019   0.000001   0.000000   0.000000   0.000091
     7  C   -0.027036  -0.016067  -0.000581   0.000177   0.000246   0.002510
     8  H    0.000667   0.000064   0.000006   0.000000   0.000000  -0.000006
     9  C    0.098464   0.034824  -0.000927  -0.000450  -0.000200  -0.013618
    10  C    0.058049   0.005380   0.000029   0.000180  -0.000265   0.019091
    11  C   -0.055672  -0.020331   0.000135  -0.000282   0.000208  -0.013888
    12  H    0.000238   0.000094  -0.000001   0.000086   0.000000  -0.004507
    13  C    0.043019   0.008671   0.000112   0.000153  -0.000148   0.001344
    14  C    0.008671  -0.015469  -0.000075  -0.000135   0.000033   0.006067
    15  H    0.000112  -0.000075   0.000038   0.000001   0.000002   0.000016
    16  H    0.000153  -0.000135   0.000001  -0.000097  -0.000001   0.000156
    17  H   -0.000148   0.000033   0.000002  -0.000001   0.000101  -0.000010
    18  C    0.001344   0.006067   0.000016   0.000156  -0.000010   0.538890
    19  H   -0.001617   0.000191   0.000000   0.000000  -0.000000   0.053219
    20  H    0.000050   0.000007   0.000000  -0.000000  -0.000000  -0.010792
    21  H    0.000599  -0.000295   0.000000   0.000002  -0.000000  -0.006018
    22  O    0.001353  -0.000219   0.000000   0.000000   0.000000  -0.145437
    23  O   -0.000072  -0.000002  -0.000000  -0.000000   0.000000   0.035239
    24  H   -0.000002   0.000001  -0.000000  -0.000000  -0.000000   0.000055
              19         20         21         22         23         24
     1  C   -0.008153  -0.004249   0.011636  -0.000652   0.014297  -0.001133
     2  C   -0.006964  -0.001424  -0.000510   0.001673   0.006130   0.000008
     3  C    0.009439   0.007199   0.000894   0.032145  -0.031348   0.001289
     4  H   -0.001848   0.000029  -0.000007   0.001473  -0.000277   0.000004
     5  C    0.003680   0.000086   0.000406  -0.005894   0.001971  -0.000012
     6  H    0.000015   0.000000   0.000000  -0.000001  -0.000014   0.000000
     7  C   -0.005672   0.001917   0.004652   0.007960  -0.001223  -0.000027
     8  H   -0.000001   0.000000   0.000000   0.000002  -0.000000  -0.000000
     9  C   -0.009149   0.000113  -0.006455   0.009434  -0.003740   0.000143
    10  C    0.010566   0.002450  -0.007255  -0.011305  -0.000687   0.000076
    11  C    0.004576  -0.000622  -0.003252  -0.003900   0.000114   0.000006
    12  H   -0.000070   0.000330   0.000080  -0.000019   0.000005   0.000000
    13  C   -0.001617   0.000050   0.000599   0.001353  -0.000072  -0.000002
    14  C    0.000191   0.000007  -0.000295  -0.000219  -0.000002   0.000001
    15  H    0.000000   0.000000   0.000000   0.000000  -0.000000  -0.000000
    16  H    0.000000  -0.000000   0.000002   0.000000  -0.000000  -0.000000
    17  H   -0.000000  -0.000000  -0.000000   0.000000   0.000000  -0.000000
    18  C    0.053219  -0.010792  -0.006018  -0.145437   0.035239   0.000055
    19  H   -0.028186   0.000170  -0.003604  -0.029567   0.010810   0.000883
    20  H    0.000170  -0.016422   0.001856   0.003650  -0.000304  -0.000082
    21  H   -0.003604   0.001856  -0.003915   0.004988  -0.000901   0.000001
    22  O   -0.029567   0.003650   0.004988   0.758404  -0.096250  -0.001864
    23  O    0.010810  -0.000304  -0.000901  -0.096250   0.212555   0.002746
    24  H    0.000883  -0.000082   0.000001  -0.001864   0.002746  -0.008341
 Mulliken charges and spin densities:
               1          2
     1  C   -0.315769   0.023161
     2  C   -0.526357   0.011663
     3  C    0.225667  -0.050672
     4  H    0.179504   0.000813
     5  C   -0.065181   0.001966
     6  H    0.151979   0.000093
     7  C    0.148971   0.004871
     8  H    0.153186  -0.000151
     9  C    0.608145  -0.005465
    10  C   -0.124639   0.001820
    11  C   -0.440367  -0.005799
    12  H    0.171251  -0.004355
    13  C   -0.006532   0.001841
    14  C   -0.377432  -0.001358
    15  H    0.150987   0.000051
    16  H    0.150504  -0.000030
    17  H    0.149798   0.000077
    18  C   -0.911697   0.377118
    19  H    0.468559  -0.001282
    20  H    0.177572  -0.016037
    21  H    0.208222  -0.007099
    22  O   -0.235045   0.525976
    23  O   -0.204922   0.149048
    24  H    0.263596  -0.006248
 Sum of Mulliken charges =  -0.00000   1.00000
 Mulliken charges and spin densities with hydrogens summed into heavy atoms:
               1          2
     1  C   -0.136266   0.023974
     2  C   -0.374378   0.011756
     3  C    0.225667  -0.050672
     5  C    0.088005   0.001815
     7  C    0.148971   0.004871
     9  C    0.608145  -0.005465
    10  C    0.046612  -0.002535
    11  C   -0.289862  -0.005829
    13  C    0.144455   0.001891
    14  C   -0.227634  -0.001281
    18  C   -0.057344   0.352700
    22  O   -0.235045   0.525976
    23  O    0.058675   0.142800
 Electronic spatial extent (au):  <R**2>=           2994.7893
 Charge=             -0.0000 electrons
 Dipole moment (field-independent basis, Debye):
    X=              0.7720    Y=             -0.5833    Z=              1.5318  Tot=              1.8118
 Quadrupole moment (field-independent basis, Debye-Ang):
   XX=            -74.1588   YY=            -69.7961   ZZ=            -78.4744
   XY=              1.3924   XZ=             -6.7671   YZ=             -0.6041
 Traceless Quadrupole moment (field-independent basis, Debye-Ang):
   XX=             -0.0157   YY=              4.3470   ZZ=             -4.3313
   XY=              1.3924   XZ=             -6.7671   YZ=             -0.6041
 Octapole moment (field-independent basis, Debye-Ang**2):
  XXX=              2.1587  YYY=              0.4124  ZZZ=              7.5750  XYY=             -3.3550
  XXY=             -6.3430  XXZ=             44.1253  XZZ=            -37.5891  YZZ=             -5.9494
  YYZ=              0.3281  XYZ=              5.5486
 Hexadecapole moment (field-independent basis, Debye-Ang**3):
 XXXX=          -2772.4285 YYYY=           -857.2396 ZZZZ=           -120.1985 XXXY=             33.9445
 XXXZ=           -179.1833 YYYX=              0.3400 YYYZ=              1.0783 ZZZX=            -42.9297
 ZZZY=              1.2422 XXYY=           -600.3305 XXZZ=           -451.6064 YYZZ=           -191.2881
 XXYZ=            -24.2344 YYXZ=              0.8003 ZZXY=             17.7187
 N-N= 7.236357372427D+02 E-N=-2.790095671351D+03  KE= 5.739861647099D+02
                          Isotropic Fermi Contact Couplings
        Atom                 a.u.       MegaHertz       Gauss      10(-4) cm-1
     1  C(13)              0.00416       4.68055       1.67014       1.56126
     2  C(13)             -0.00042      -0.46841      -0.16714      -0.15625
     3  C(13)             -0.00823      -9.24647      -3.29937      -3.08429
     4  H(1)              -0.00008      -0.37664      -0.13440      -0.12563
     5  C(13)              0.00015       0.16719       0.05966       0.05577
     6  H(1)               0.00012       0.51708       0.18451       0.17248
     7  C(13)              0.00073       0.81520       0.29088       0.27192
     8  H(1)              -0.00003      -0.13057      -0.04659      -0.04355
     9  C(13)              0.01125      12.65141       4.51434       4.22006
    10  C(13)              0.00267       3.00633       1.07273       1.00280
    11  C(13)              0.00024       0.26664       0.09514       0.08894
    12  H(1)               0.00019       0.85581       0.30537       0.28547
    13  C(13)              0.00068       0.76766       0.27392       0.25606
    14  C(13)              0.00022       0.24387       0.08702       0.08135
    15  H(1)               0.00004       0.15836       0.05651       0.05282
    16  H(1)               0.00003       0.11930       0.04257       0.03980
    17  H(1)               0.00001       0.06578       0.02347       0.02194
    18  C(13)              0.15412     173.25674      61.82231      57.79223
    19  H(1)              -0.01079     -48.22687     -17.20855     -16.08675
    20  H(1)              -0.00342     -15.28744      -5.45494      -5.09934
    21  H(1)               0.00384      17.15453       6.12116       5.72214
    22  O(17)              0.20144    -122.11264     -43.57283     -40.73239
    23  O(17)              0.01649      -9.99512      -3.56651      -3.33401
    24  H(1)              -0.00302     -13.52096      -4.82461      -4.51011
 --------------------------------------------------------
       Center         ----  Spin Dipole Couplings  ----
                      3XX-RR        3YY-RR        3ZZ-RR
 --------------------------------------------------------
     1   Atom       -0.002747      0.008746     -0.005999
     2   Atom        0.000582      0.002051     -0.002633
     3   Atom        0.014381     -0.002964     -0.011417
     4   Atom       -0.001463      0.008622     -0.007159
     5   Atom        0.000197     -0.000380      0.000183
     6   Atom       -0.000173      0.001395     -0.001222
     7   Atom        0.002740     -0.000035     -0.002705
     8   Atom        0.000405      0.000246     -0.000651
     9   Atom        0.015647     -0.008741     -0.006905
    10   Atom        0.005409     -0.000694     -0.004716
    11   Atom        0.001897     -0.001114     -0.000784
    12   Atom        0.005098     -0.001008     -0.004090
    13   Atom        0.001619     -0.000961     -0.000658
    14   Atom        0.001545     -0.000223     -0.001322
    15   Atom        0.000695     -0.000219     -0.000476
    16   Atom        0.001098     -0.000425     -0.000673
    17   Atom        0.000699     -0.000317     -0.000382
    18   Atom        0.331393     -0.119283     -0.212111
    19   Atom        0.223069     -0.105280     -0.117789
    20   Atom       -0.002180     -0.003142      0.005322
    21   Atom       -0.003737     -0.012472      0.016208
    22   Atom        0.933492     -0.113201     -0.820291
    23   Atom        1.008082     -0.550085     -0.457997
    24   Atom       -0.005140     -0.023930      0.029070
 --------------------------------------------------------
                        XY            XZ            YZ
 --------------------------------------------------------
     1   Atom        0.003377      0.000602     -0.003434
     2   Atom        0.002033     -0.000003     -0.000240
     3   Atom        0.005734      0.001572      0.000719
     4   Atom        0.005610     -0.001394     -0.001594
     5   Atom        0.001312     -0.000670      0.000510
     6   Atom        0.001362     -0.000061      0.000010
     7   Atom        0.002425      0.000356      0.000210
     8   Atom        0.000976      0.000055      0.000094
     9   Atom        0.001907      0.006352      0.000260
    10   Atom        0.001897      0.001144      0.000393
    11   Atom       -0.000405      0.000468      0.000005
    12   Atom       -0.003003      0.001066     -0.000241
    13   Atom        0.000524      0.000459      0.000040
    14   Atom        0.000253      0.000261      0.000004
    15   Atom        0.000482      0.000107      0.000046
    16   Atom       -0.000636      0.000153     -0.000066
    17   Atom        0.000025      0.000094      0.000007
    18   Atom       -0.224950     -0.036200      0.014103
    19   Atom       -0.098922     -0.071539      0.022442
    20   Atom       -0.014257      0.004956     -0.025245
    21   Atom       -0.009900     -0.004288      0.023105
    22   Atom        1.559124      0.971070      0.719231
    23   Atom        0.421559      0.171283     -0.114665
    24   Atom        0.001357     -0.014160     -0.016655
 --------------------------------------------------------


 ---------------------------------------------------------------------------------
              Anisotropic Spin Dipole Couplings in Principal Axis System
 ---------------------------------------------------------------------------------

       Atom             a.u.   MegaHertz   Gauss  10(-4) cm-1        Axes

              Baa    -0.0072    -0.967    -0.345    -0.323 -0.3223  0.2639  0.9091
     1 C(13)  Bbb    -0.0031    -0.412    -0.147    -0.138  0.9163 -0.1544  0.3696
              Bcc     0.0103     1.380     0.492     0.460  0.2379  0.9521 -0.1920
 
              Baa    -0.0026    -0.355    -0.127    -0.119 -0.0426  0.0693  0.9967
     2 C(13)  Bbb    -0.0008    -0.112    -0.040    -0.037  0.8182 -0.5701  0.0746
              Bcc     0.0035     0.468     0.167     0.156  0.5734  0.8187 -0.0324
 
              Baa    -0.0115    -1.547    -0.552    -0.516 -0.0493 -0.0507  0.9975
     3 C(13)  Bbb    -0.0047    -0.628    -0.224    -0.209 -0.2905  0.9563  0.0342
              Bcc     0.0162     2.175     0.776     0.726  0.9556  0.2881  0.0619
 
              Baa    -0.0075    -3.996    -1.426    -1.333  0.2016  0.0267  0.9791
     4 H(1)   Bbb    -0.0039    -2.057    -0.734    -0.686  0.8901 -0.4222 -0.1718
              Bcc     0.0113     6.053     2.160     2.019  0.4088  0.9061 -0.1089
 
              Baa    -0.0018    -0.239    -0.085    -0.080 -0.5979  0.7021 -0.3867
     5 C(13)  Bbb     0.0005     0.064     0.023     0.021 -0.0567  0.4442  0.8941
              Bcc     0.0013     0.174     0.062     0.058  0.7996  0.5565 -0.2257
 
              Baa    -0.0012    -0.659    -0.235    -0.220  0.1822 -0.0982  0.9783
     6 H(1)   Bbb    -0.0009    -0.506    -0.181    -0.169  0.8463 -0.4909 -0.2069
              Bcc     0.0022     1.165     0.416     0.388  0.5005  0.8657 -0.0064
 
              Baa    -0.0027    -0.366    -0.131    -0.122 -0.0507 -0.0322  0.9982
     7 C(13)  Bbb    -0.0014    -0.193    -0.069    -0.065 -0.5018  0.8650  0.0024
              Bcc     0.0042     0.560     0.200     0.187  0.8635  0.5007  0.0600
 
              Baa    -0.0007    -0.367    -0.131    -0.122  0.4399 -0.5331  0.7227
     8 H(1)   Bbb    -0.0006    -0.333    -0.119    -0.111 -0.5179  0.5069  0.6891
              Bcc     0.0013     0.699     0.249     0.233  0.7337  0.6774  0.0531
 
              Baa    -0.0090    -1.208    -0.431    -0.403 -0.1814  0.8795  0.4401
     9 C(13)  Bbb    -0.0084    -1.134    -0.404    -0.378 -0.1900 -0.4704  0.8618
              Bcc     0.0175     2.342     0.836     0.781  0.9649  0.0727  0.2524
 
              Baa    -0.0049    -0.651    -0.232    -0.217 -0.1020 -0.0473  0.9937
    10 C(13)  Bbb    -0.0012    -0.166    -0.059    -0.055 -0.2773  0.9606  0.0173
              Bcc     0.0061     0.817     0.291     0.272  0.9554  0.2738  0.1111
 
              Baa    -0.0012    -0.158    -0.057    -0.053  0.1575  0.9676 -0.1975
    11 C(13)  Bbb    -0.0008    -0.114    -0.041    -0.038 -0.1325  0.2189  0.9667
              Bcc     0.0020     0.272     0.097     0.091  0.9786 -0.1260  0.1627
 
              Baa    -0.0042    -2.250    -0.803    -0.750 -0.1279 -0.0452  0.9908
    12 H(1)   Bbb    -0.0022    -1.185    -0.423    -0.395  0.3669  0.9259  0.0896
              Bcc     0.0064     3.435     1.226     1.146  0.9214 -0.3750  0.1019
 
              Baa    -0.0011    -0.144    -0.051    -0.048 -0.2131  0.9663  0.1446
    13 C(13)  Bbb    -0.0007    -0.099    -0.035    -0.033 -0.1497 -0.1785  0.9725
              Bcc     0.0018     0.242     0.086     0.081  0.9655  0.1856  0.1827
 
              Baa    -0.0013    -0.181    -0.064    -0.060 -0.0913  0.0168  0.9957
    14 C(13)  Bbb    -0.0003    -0.035    -0.012    -0.012 -0.1349  0.9904 -0.0291
              Bcc     0.0016     0.215     0.077     0.072  0.9866  0.1369  0.0882
 
              Baa    -0.0005    -0.259    -0.093    -0.086 -0.0764 -0.0349  0.9965
    15 H(1)   Bbb    -0.0004    -0.227    -0.081    -0.076 -0.3949  0.9187  0.0019
              Bcc     0.0009     0.487     0.174     0.162  0.9155  0.3934  0.0839
 
              Baa    -0.0007    -0.368    -0.131    -0.123  0.0189  0.2838  0.9587
    16 H(1)   Bbb    -0.0007    -0.348    -0.124    -0.116  0.3493  0.8966 -0.2723
              Bcc     0.0013     0.716     0.256     0.239  0.9368 -0.3401  0.0822
 
              Baa    -0.0004    -0.208    -0.074    -0.069 -0.0843 -0.0617  0.9945
    17 H(1)   Bbb    -0.0003    -0.169    -0.060    -0.056 -0.0297  0.9978  0.0594
              Bcc     0.0007     0.378     0.135     0.126  0.9960  0.0246  0.0859
 
              Baa    -0.2147   -28.816   -10.282    -9.612  0.1749  0.2723  0.9462
    18 C(13)  Bbb    -0.2121   -28.459   -10.155    -9.493  0.3445  0.8833 -0.3179
              Bcc     0.4268    57.275    20.437    19.105  0.9224 -0.3815 -0.0607
 
              Baa    -0.1350   -72.049   -25.709   -24.033  0.0702  0.7389 -0.6701
    19 H(1)   Bbb    -0.1302   -69.465   -24.787   -23.171  0.3188  0.6199  0.7170
              Bcc     0.2652   141.514    50.496    47.204  0.9452 -0.2640 -0.1920
 
              Baa    -0.0272   -14.514    -5.179    -4.841  0.3301  0.7694  0.5469
    20 H(1)   Bbb    -0.0046    -2.460    -0.878    -0.820  0.8699 -0.0230 -0.4926
              Bcc     0.0318    16.974     6.057     5.662  0.3664 -0.6384  0.6769
 
              Baa    -0.0273   -14.548    -5.191    -4.853  0.2831  0.8582 -0.4282
    21 H(1)   Bbb    -0.0039    -2.102    -0.750    -0.701  0.9278 -0.1320  0.3488
[...]
 70,0.00011365,0.00002093,0.00004469,-0.00000814,-0.00104374,0.00008491
 ,0.00031310,-0.00000153,0.00003064,-0.00006604,-0.00298513,0.00564981,
 0.00173234,-0.00697778,0.00875003,-0.02663036,-0.10221649,0.04129772,-
 0.09569990,-0.00017443,-0.00254985,0.00005881,-0.00015410,0.00237117,0
 .00343626,0.01023515,-0.00508758,0.01440120,0.00033838,-0.00021594,0.0
 0079280,0.10321626,-0.00004940,-0.00070877,0.00001445,0.00015460,0.000
 05431,-0.00009899,-0.00012981,0.00013960,0.00065072,0.00001350,-0.0000
 4633,0.00006288,-0.00051976,-0.00066137,-0.00013787,0.00004467,0.00008
 885,0.00001803,0.00003597,-0.00077451,-0.00030019,0.00002060,0.0000336
 2,0.00003196,0.00568657,0.00650196,0.00003059,0.00530910,0.00051160,0.
 01279398,0.04155712,-0.07018450,0.07456353,-0.00246939,-0.00423546,-0.
 00073453,0.00229697,0.00457190,-0.00068089,-0.00182207,0.00467635,-0.0
 0456270,-0.00005516,0.00011731,-0.00025726,-0.04877471,0.06195425,-0.0
 0017676,-0.00002890,0.00026232,0.00019086,-0.00007180,-0.00005931,-0.0
 0007465,0.00006678,-0.00009684,0.00000175,-0.00000676,0.00000330,-0.00
 028907,0.00004287,-0.00013620,-0.00000974,0.00001944,-0.00001351,0.000
 76677,-0.00051654,0.00043559,0.00002482,-0.00001145,0.00004536,0.00121
 451,0.00032727,0.00174563,0.00163111,-0.00068056,0.00375324,-0.0966787
 5,0.07480327,-0.26881943,-0.00060460,-0.00045460,0.00065302,0.00402553
 ,-0.00091192,-0.00305015,-0.01310984,0.00872899,-0.01734981,-0.0006492
 8,0.00043041,-0.00099883,0.10374049,-0.08134399,0.28285602,0.00008183,
 0.00001682,0.00001268,-0.00016482,-0.00020045,-0.00034627,-0.00018820,
 -0.00034178,-0.00002441,0.00000613,0.00005204,0.00000232,-0.00047176,0
 .00025534,0.00033164,-0.00006173,0.00001547,0.00000184,0.00273785,0.00
 339417,-0.00168784,0.00003705,0.00006279,-0.00002650,0.00040539,-0.000
 54392,-0.00000662,0.00124627,0.00175055,0.00325691,-0.00936883,0.00639
 290,-0.00286338,-0.00053483,0.00031354,-0.00017861,-0.00698412,0.00533
 217,0.00184778,-0.28010195,0.11809691,-0.00197569,-0.00040792,-0.00233
 074,-0.00044234,-0.00001051,-0.00145515,0.00002891,0.29380913,0.000002
 14,0.00011356,0.00005544,-0.00017836,-0.00058133,0.00012111,-0.0003754
 6,-0.00069851,-0.00013002,0.00005187,0.00008759,0.00001122,0.00038127,
 -0.00000755,-0.00024410,0.00003187,-0.00004332,-0.00000481,0.00327128,
 0.00740446,0.00243560,0.00005614,0.00012728,0.00003553,-0.00051375,-0.
 00049408,0.00004804,0.00179577,0.00478825,-0.00037326,0.00313941,0.001
 53509,0.00108965,0.00015471,-0.00000309,0.00009200,0.00850178,0.000478
 94,-0.00091197,0.11819673,-0.09811036,0.00380585,-0.00237973,-0.004092
 14,-0.00049535,-0.00133159,-0.00226385,-0.00044511,-0.13082017,0.09177
 018,0.00012060,0.00000668,-0.00044443,-0.00051367,0.00019714,-0.000236
 23,0.00034992,-0.00030778,0.00030810,0.00000029,0.00001138,0.00001082,
 -0.00084421,0.00031909,0.00082717,-0.00013705,0.00006312,0.00000304,-0
 .00123272,0.00221294,-0.00480203,0.00002970,0.00000864,-0.00003693,-0.
 00038620,0.00024316,-0.00125812,0.00267337,-0.00010224,-0.00451032,0.0
 2468407,-0.01218913,0.00553044,0.00122151,-0.00057712,0.00007101,-0.02
 606420,0.01256216,0.00448195,-0.00136464,0.00349321,-0.06080784,0.0001
 7538,-0.00078782,0.00087456,-0.00076469,-0.00007091,0.00078984,0.00207
 801,-0.00508243,0.05909515,0.00904141,-0.00005698,-0.00598579,0.000824
 53,0.00448226,-0.00176592,-0.12469544,0.01585751,0.06440971,-0.0004229
 9,-0.00227886,-0.00223067,-0.00018300,-0.00039436,-0.00045112,0.000341
 15,-0.00012403,-0.00074234,-0.00275647,0.00413207,-0.00274427,-0.00016
 204,-0.00052766,0.00007914,-0.01594675,0.00644496,0.02551387,-0.001185
 75,-0.00091176,0.00019273,-0.00030593,-0.00007715,0.00132682,-0.001582
 84,0.00097298,0.00062756,-0.00019936,-0.00006956,0.00165094,-0.0002722
 4,-0.00001948,-0.00028943,-0.00033717,0.00025223,0.00000111,0.00006926
 ,0.00012997,-0.00002331,-0.00002526,0.00002374,0.00004161,0.55608290,-
 0.00270509,0.00800817,0.00740558,0.00463970,0.00758780,0.00208015,0.01
 680295,-0.08179366,-0.01844063,-0.00279852,-0.00461303,0.00025114,-0.0
 0046101,-0.00090497,0.00026022,-0.00027972,-0.00003137,0.00042260,0.00
 401078,0.00308814,0.00171043,-0.00054283,-0.00100318,-0.00018740,0.008
 67018,0.00090988,-0.01229294,-0.00058198,-0.00279530,-0.00044604,-0.00
 005685,0.00000443,-0.00050409,0.00108580,0.00018176,-0.00025219,0.0002
 3885,0.00001473,-0.00077878,-0.00005353,-0.00037750,-0.00005295,0.0002
 7378,0.00005572,0.00001765,0.00013648,0.00027476,0.00005584,0.00002572
 ,0.00002032,-0.00001501,-0.01316102,0.54771203,0.01672045,-0.00360440,
 -0.03173799,-0.00237833,0.00229911,-0.00048909,0.05641199,-0.01479072,
 -0.18357630,0.00116482,-0.00127065,0.00091130,0.00025371,-0.00004619,-
 0.00165201,0.00053678,-0.00019614,-0.00068119,-0.00224527,0.00144864,0
 .00193282,0.00004146,-0.00017178,0.00007267,0.00652567,-0.00311550,0.0
 0389651,-0.00379366,0.00154064,-0.00074483,0.00131607,-0.00055499,-0.0
 0080716,-0.00035624,0.00020326,0.00037975,-0.00105160,0.00049671,0.000
 05315,-0.00019035,-0.00008205,0.00118856,-0.00020289,0.00011393,0.0000
 2557,-0.00002472,0.00004741,-0.00002519,0.00000001,0.00000317,0.000021
 32,0.03838025,-0.01768346,0.51929090,0.00099716,-0.00028133,-0.0024774
 8,-0.00002077,-0.00008805,0.00029380,-0.01651196,0.00737442,-0.0031171
 7,0.00050738,-0.00026132,0.00027661,0.00031273,-0.00012804,0.00001653,
 -0.00000260,-0.00001512,-0.00001383,-0.00059176,0.00054057,-0.00069190
 ,0.00005871,-0.00002531,0.00003717,-0.00032647,0.00041547,0.00277521,0
 .00045000,-0.00016392,0.00036415,-0.00006716,0.00010863,0.00002401,0.0
 0006080,-0.00022594,0.00009085,-0.00003762,-0.00008067,0.00032672,0.00
 002527,-0.00001678,-0.00007666,-0.00008305,0.00002926,0.00000692,-0.00
 002841,0.00001950,-0.00000703,-0.00001624,-0.00000209,-0.00000133,-0.2
 5586522,0.10076972,-0.05586125,0.27832165,-0.00075431,0.00006102,0.001
 02919,-0.00010495,-0.00014809,-0.00016125,0.00426074,-0.00370905,0.000
 79342,-0.00002788,0.00038549,-0.00002628,-0.00009274,0.00009829,0.0000
 2324,-0.00001010,-0.00002635,-0.00000494,0.00032772,0.00015305,0.00026
 784,-0.00000643,0.00003234,-0.00001308,0.00056973,0.00108596,-0.000649
 76,-0.00001624,0.00020674,0.00001270,0.00009612,0.00013858,-0.00004090
 ,-0.00021273,-0.00029328,-0.00016895,-0.00002588,-0.00009007,-0.000119
 27,-0.00001207,-0.00003039,0.00001275,0.00001643,-0.00002871,-0.000007
 46,0.00001495,0.00000353,0.00000538,-0.00000004,-0.00002092,-0.0000089
 5,0.10124494,-0.09693040,0.02722637,-0.11277535,0.10089349,0.00180005,
 -0.00097772,0.00074307,0.00010161,-0.00006042,-0.00001378,0.02616896,-
 0.01253735,0.00510674,-0.00052586,0.00033010,-0.00077028,-0.00012609,0
 .00008246,-0.00007213,-0.00003111,0.00000612,0.00004041,0.00124752,-0.
 00066997,0.00061837,-0.00006269,0.00003292,-0.00002238,0.00189028,-0.0
 0019505,-0.00491069,-0.00040871,0.00036591,-0.00122474,0.00014975,-0.0
 0008313,0.00033363,-0.00026723,0.00001806,0.00053411,-0.00003062,0.000
 05719,-0.00047694,-0.00009493,0.00002524,0.00012703,0.00012611,-0.0000
 6426,0.00001112,0.00003750,-0.00001633,-0.00000389,-0.00001555,-0.0000
 0101,0.00004445,-0.06018850,0.02895388,-0.06081314,0.06005905,-0.03035
 017,0.06969910,-0.00104836,0.00016883,0.00047743,-0.00044952,-0.000608
 79,0.00035407,0.01130592,0.01230927,0.01083083,0.00021507,-0.00004203,
 0.00016337,0.00024975,-0.00007010,0.00062393,-0.00006787,0.00000538,0.
 00010778,-0.00015155,-0.00069296,-0.00050090,0.00004619,0.00006089,-0.
 00001072,-0.00065843,0.00030610,0.00006561,0.00042272,0.00005892,-0.00
 001718,-0.00055673,0.00017309,0.00026699,-0.00051708,0.00072333,0.0002
 7868,0.00039838,-0.00018228,0.00010052,0.00005261,0.00017523,-0.000471
 08,0.00000520,-0.00003287,0.00000623,-0.00003354,-0.00003894,-0.000005
 91,0.00000084,-0.00000106,-0.00001460,-0.10720159,-0.07526188,-0.07762
 774,-0.01247155,-0.01851734,-0.01611743,0.11412500,0.00027467,-0.00032
 683,0.00066626,0.00005525,-0.00028615,0.00000864,-0.00098244,-0.001787
 80,-0.00120988,0.00003270,0.00020591,0.00003218,-0.00010001,0.00000306
 ,-0.00024371,0.00004960,0.00003556,-0.00001216,0.00005625,0.00006747,0
 .00005244,0.00001866,0.00003229,0.00002817,0.00015750,0.00064822,-0.00
 048182,0.00006109,0.00007574,-0.00088154,0.00002953,-0.00000971,0.0004
 3446,0.00025238,-0.00075238,0.00021869,-0.00012551,0.00005772,0.000065
 85,-0.00006582,-0.00000399,0.00005367,0.00000517,0.00000527,0.00000647
 ,0.00001737,-0.00001620,-0.00000988,-0.00002806,-0.00000012,0.00005019
 ,-0.07560742,-0.13881465,-0.10001903,0.00653209,0.00986835,0.00993132,
 0.08377044,0.14834962,0.00263618,-0.00111430,-0.00174429,0.00064493,0.
 00159191,-0.00034302,-0.01262432,-0.01492155,-0.01939970,-0.00026288,-
 0.00083661,-0.00011409,0.00005565,-0.00017235,-0.00014181,0.00012034,-
 0.00002585,-0.00025446,0.00029444,0.00064581,-0.00072299,-0.00002817,-
 0.00018094,0.00000482,-0.00122816,0.00123422,0.00033213,0.00021776,-0.
 00035102,0.00032614,0.00001642,0.00004822,0.00033920,0.00001605,-0.000
 20106,0.00043444,-0.00004569,-0.00000689,0.00012022,-0.00003826,-0.000
 01294,-0.00002847,-0.00000295,0.00000698,-0.00000773,0.00001424,0.0000
 0870,0.00000593,0.00000080,-0.00000876,0.00002105,-0.07975904,-0.10053
 621,-0.14493786,-0.00286287,-0.00406843,-0.00463905,0.08498422,0.10949
 675,0.16060254,-0.00112218,0.00057262,0.00005294,0.00005788,0.00041348
 ,0.00029382,-0.00280714,-0.01528855,0.00720496,0.00018211,-0.00002932,
 0.00011953,0.00007205,-0.00024887,0.00053151,-0.00005131,0.00006184,0.
 00011076,0.00035578,0.00048588,-0.00014354,-0.00000808,-0.00002395,-0.
 00003605,-0.00009736,0.00051095,0.00041770,0.00019526,-0.00030894,0.00
 063445,-0.00028969,0.00026107,-0.00018597,-0.00120029,-0.00018541,-0.0
 0029467,0.00033801,-0.00016369,-0.00001075,-0.00001079,-0.00008736,-0.
 00034641,0.00002074,0.00001539,0.00000339,-0.00000967,0.00003826,0.000
 01118,0.00001957,-0.00000910,-0.00005158,-0.05525396,-0.04060660,0.022
 20079,0.00696590,0.02481005,-0.01311511,-0.00347030,-0.01444012,0.0079
 8465,0.05616818,-0.00005303,-0.00022463,-0.00056990,-0.00010948,-0.000
 35232,-0.00032037,0.00069429,0.00864229,-0.00245664,-0.00009838,0.0000
 9365,-0.00012373,-0.00013441,0.00012360,-0.00032339,0.00001866,0.00001
 680,-0.00002923,-0.00029872,-0.00031515,0.00040780,0.00000288,0.000057
 15,-0.00000073,0.00111121,-0.00000270,0.00031439,-0.00033376,0.0002298
 1,0.00054460,0.00042085,-0.00014733,-0.00056559,0.00022566,-0.00001191
 ,-0.00039722,-0.00021918,0.00012628,-0.00014208,0.00008290,0.00001587,
 0.00036221,-0.00001974,-0.00000673,-0.00001150,-0.00002047,-0.00003523
 ,0.00000214,0.00001295,-0.00000996,-0.00002693,-0.04041642,-0.24078167
 ,0.10819124,-0.00282696,-0.01068157,0.00472876,-0.00246238,-0.01732370
 ,0.00932482,0.04435770,0.26052461,0.00272447,-0.00100210,-0.00191987,-
 0.00082626,-0.00139814,-0.00074253,0.00429732,0.02327889,-0.01622747,0
 .00049566,0.00073595,0.00005651,0.00014831,0.00009342,-0.00011381,0.00
 012159,-0.00002509,-0.00025996,-0.00026979,-0.00047714,-0.00076211,0.0
 0012036,0.00013145,0.00003582,-0.00143944,0.00011023,0.00036641,0.0003
 0774,-0.00003556,0.00048387,-0.00001453,-0.00010107,0.00022556,-0.0001
 5486,0.00003327,0.00024520,-0.00004554,0.00002786,0.00010094,0.0000007
 4,0.00003459,0.00001181,-0.00000801,0.00000040,-0.00000985,-0.00000354
 ,-0.00001904,0.00000341,0.00000729,-0.00000121,0.00001502,0.02171539,0
 .11014382,-0.10243870,0.00163878,0.00558903,-0.00393684,-0.00340814,-0
 .01819137,0.01017198,-0.02534719,-0.11890973,0.11471039,-0.00030020,-0
 .00015263,-0.00007959,0.00010879,-0.00005897,0.00006541,-0.00001335,0.
 00011075,-0.00068401,0.00003596,0.00046052,0.00000685,-0.00000932,-0.0
 0000222,0.00002355,-0.00002212,0.00000183,0.00004525,-0.00004288,0.000
 02437,-0.00004727,0.00001173,0.00000043,0.00000722,-0.00008454,0.00003
 930,0.00031991,0.00001170,-0.00002799,-0.00004381,0.00001145,0.0000046
 3,0.00001873,0.00003068,-0.00001940,0.00005209,-0.00002235,0.00001370,
 0.00003788,0.00000311,-0.00001439,0.00001222,-0.00001175,0.00000683,0.
 00000572,0.00000021,0.00000208,-0.00000303,-0.00000795,0.00000407,0.00
 000532,-0.00017235,-0.00039739,0.00042605,-0.00105523,0.00106881,-0.00
 085961,-0.00024304,0.00008678,-0.00006275,0.00001381,0.00003443,0.0000
 0901,0.08104363,-0.00070956,0.00005988,-0.00003035,0.00014354,-0.00010
 470,0.00018539,0.00022262,-0.00008956,-0.00051786,-0.00023949,0.000350
 57,0.00024967,0.00001965,-0.00000758,-0.00001796,-0.00003569,0.0000210
 4,0.00005678,0.00001089,0.00002557,-0.00006743,0.00004038,-0.00001091,
 -0.00000223,-0.00007998,0.00004329,0.00025921,0.00006535,-0.00002226,-
 0.00006109,0.00001849,-0.00002072,0.00001920,0.00000677,-0.00000017,0.
 00003008,-0.00004951,0.00000423,0.00005735,0.00004686,-0.00002374,0.00
 002558,-0.00000143,0.00000350,-0.00000709,0.00001528,-0.00000535,0.000
 00850,0.00000515,-0.00000103,0.00000540,0.00035197,-0.00048226,0.00036
 759,0.00076795,0.00033826,-0.00033089,-0.00012995,0.00010605,0.0000114
 3,0.00004113,-0.00012387,0.00006693,0.13924469,0.29155994,0.00030238,0
 .00015360,0.00014527,-0.00005451,0.00006404,-0.00010576,-0.00006918,0.
 00005741,0.00015689,-0.00011099,-0.00040567,-0.00017136,-0.00002753,0.
 00000308,0.00003168,0.00000017,-0.00000978,0.00000134,0.00001556,-0.00
 000248,0.00002597,-0.00002014,-0.00000079,-0.00000028,-0.00000931,-0.0
 0006768,-0.00010613,-0.00000830,0.00004097,0.00001096,-0.00000114,-0.0
 0000459,-0.00000521,-0.00000621,-0.00000642,-0.00001010,0.00000834,-0.
 00000115,-0.00001786,-0.00000750,0.00001604,-0.00000017,-0.00000056,-0
 .00000342,0.00000166,-0.00000503,-0.00000242,-0.00000242,-0.00000194,-
 0.00000195,-0.00000139,-0.00023496,0.00040799,-0.00017567,-0.00038501,
 -0.00032976,0.00006977,0.00020235,-0.00009971,0.00005221,-0.00006216,0
 .00010036,-0.00003789,-0.11596039,-0.20096972,0.20239931,0.00097803,0.
 00019406,0.00026192,-0.00023719,0.00022321,-0.00030748,-0.00011398,0.0
 0003363,0.00039492,-0.00097963,-0.00013385,-0.00031793,-0.00009237,0.0
 0001538,0.00008269,0.00001535,-0.00002725,-0.00000421,-0.00001903,-0.0
 0000354,0.00008693,-0.00007118,0.00001547,0.00000658,0.00010973,-0.000
 15362,-0.00020128,-0.00007555,0.00006397,0.00005521,-0.00001557,0.0000
 0868,-0.00002446,0.00000615,-0.00001356,-0.00000784,0.00003976,-0.0000
 0427,-0.00005938,-0.00006026,0.00004114,-0.00000922,-0.00000911,-0.000
 00181,0.00001441,-0.00002137,0.00000699,-0.00001426,-0.00001330,0.0000
 0287,-0.00000428,0.00044094,0.00005704,-0.00045011,-0.00092598,0.00017
 707,0.00048611,-0.00001470,-0.00005110,0.00002412,-0.00016826,0.000155
 89,-0.00005354,-0.07238832,-0.11418051,0.11920884,0.08226640,0.0002285
 7,0.00002226,-0.00009708,0.00004292,0.00002707,-0.00001668,0.00008966,
 0.00002256,0.00069902,0.00057038,-0.00062830,-0.00014738,0.00005022,0.
 00002940,-0.00008264,0.00001672,-0.00004815,-0.00009539,0.00001699,-0.
 00006371,0.00005187,-0.00000432,-0.00001332,-0.00000682,0.00006155,0.0
 0000430,-0.00031125,-0.00002259,0.00000774,0.00005886,-0.00000969,0.00
 002417,-0.00001144,-0.00003448,0.00000601,-0.00005611,0.00004339,0.000
 00445,-0.00005248,-0.00001681,0.00001245,-0.00002511,0.00001127,-0.000
 01164,-0.00000438,-0.00000602,-0.00000449,-0.00000064,0.00000438,-0.00
 000640,-0.00000651,-0.00069103,0.00078683,-0.00046928,0.00060192,-0.00
 119835,0.00071933,0.00035853,-0.00015711,0.00005983,-0.00003937,0.0001
 0145,-0.00007629,-0.12624173,-0.25029615,0.19271343,0.15270027,0.57931
 376,-0.00033547,-0.00002462,0.00002476,0.00002923,-0.00011486,0.000042
 33,0.00010206,-0.00012306,-0.00045063,0.00033449,0.00010056,-0.0000142
 3,-0.00000782,0.00004535,0.00001779,-0.00001805,0.00002193,0.00004593,
 -0.00002351,-0.00000084,-0.00003407,0.00001056,0.00000348,0.00000392,-
 0.00000881,0.00006441,0.00023006,0.00001706,-0.00001206,-0.00004952,0.
 00001252,-0.00001292,0.00001327,0.00001922,-0.00000381,0.00003439,-0.0
 0003367,-0.00000024,0.00002856,0.00001056,-0.00000914,0.00001956,-0.00
 000650,0.00000645,0.00000203,0.00000553,0.00000112,0.00000084,-0.00000
 203,0.00000312,0.00000433,0.00046583,-0.00050536,0.00028091,-0.0005245
 9,0.00083182,-0.00044670,-0.00017450,0.00009126,-0.00003133,-0.0000075
 6,-0.00006232,0.00003192,0.10759050,0.15285451,-0.21937889,-0.10679405
 ,0.05012300,0.42470423,-0.00008022,-0.00014233,-0.00010491,-0.00001384
 ,-0.00004906,0.00014548,-0.00022288,0.00003069,0.00010706,0.00017667,0
 .00013115,0.00025360,0.00006091,-0.00004495,-0.00002091,0.00001767,0.0
 0002517,-0.00001799,0.00001954,0.00001819,-0.00004543,0.00002661,-0.00
 000080,-0.00000591,-0.00007154,0.00003510,-0.00008246,0.00003144,-0.00
 002939,0.00000479,-0.00001227,-0.00000183,0.00000131,-0.00001435,0.000
 02550,-0.00002533,-0.00000153,-0.00000957,0.00002280,0.00002807,-0.000
 01731,-0.00001417,0.00001192,0.00000055,-0.00001067,0.00001121,-0.0000
 0149,0.00001032,0.00001338,-0.00000233,-0.00000061,-0.00023184,0.00019
 545,0.00020410,0.00030443,-0.00003048,-0.00022350,0.00006259,0.0000010
 0,-0.00009471,0.00009974,-0.00012448,-0.00001584,-0.00689765,-0.025574
 59,-0.00277279,-0.00865058,-0.02773074,-0.00066101,0.01533252,0.000132
 49,-0.00004091,0.00013288,-0.00004557,0.00004295,-0.00012917,-0.000017
 66,0.00001978,-0.00022962,0.00015483,-0.00014989,-0.00022043,-0.000080
 93,0.00000103,0.00005066,0.00001046,0.00000781,0.00002635,-0.00002442,
 0.00002953,0.00002943,-0.00002560,0.00001631,0.00000945,0.00002042,-0.
 00003371,0.00011342,-0.00003533,0.00001925,-0.00001469,-0.00000130,-0.
 00000445,-0.00000289,0.00002652,-0.00001198,0.00003125,-0.00000460,-0.
 00000059,-0.00000797,-0.00002970,0.00000889,0.00000800,-0.00001075,0.0
 0000697,0.00001121,-0.00000811,0.00000804,-0.00000873,-0.00001058,0.00
 000698,0.00000169,0.00044307,-0.00011659,0.00006613,-0.00026864,-0.000
 10792,0.00003502,-0.00006942,0.00002338,0.00000823,-0.00013708,0.00008
 523,-0.00000910,-0.01418849,-0.04132404,0.00834859,-0.03912616,-0.3279
 3487,-0.20327778,0.05329655,0.36944881,-0.00014271,0.00000469,-0.00007
 009,0.00008184,0.00003685,0.00006871,0.00002008,-0.00001237,0.00007774
 ,-0.00013549,0.00004691,0.00004379,0.00002318,-0.00003040,-0.00004855,
 -0.00000840,-0.00001372,-0.00002518,0.00000830,0.00001023,0.00000217,0
 .00001418,-0.00000949,-0.00000345,-0.00000396,-0.00001450,-0.00001615,
 0.00000633,-0.00001439,0.00001706,-0.00000686,-0.00000013,-0.00000106,
 -0.00000363,0.00001007,-0.00000877,0.00000850,0.00000179,-0.00000171,0
 .00000226,-0.00000231,-0.00000682,0.00000404,-0.00000247,-0.00000360,0
 .00000029,0.00000173,0.00000107,0.00000301,-0.00000076,-0.00000094,0.0
 0001039,-0.00001426,0.00002566,0.00010932,0.00015749,0.00000274,-0.000
 11383,0.00001277,-0.00004586,0.00003530,-0.00003698,-0.00000980,0.0091
 1477,0.04780701,0.01711807,-0.01237369,-0.24296585,-0.20507947,0.00334
 678,0.19502807,0.18796444\\0.00012786,0.00005924,-0.00093403,-0.000581
 36,0.00022223,0.00030376,-0.00001367,-0.00026301,0.00023937,-0.0004356
 8,0.00039463,0.00017712,0.00067725,-0.00031256,0.00066999,0.00001536,0
 .00004922,-0.00014165,-0.00001249,-0.00008764,0.00019093,0.00006418,-0
 .00005703,-0.00018600,0.00019688,-0.00006531,-0.00015000,-0.00064689,0
 .00033576,-0.00043719,0.00060545,-0.00023333,-0.00029304,-0.00006424,0
 .00001934,0.00015424,-0.00064133,0.00039509,-0.00036934,0.00000600,-0.
 00010048,0.00075907,0.00008471,-0.00001743,-0.00016834,0.00001801,-0.0
 0006176,0.00016076,0.00010502,-0.00006761,0.00002378,0.00054246,-0.000
 22380,0.00159412,0.00092581,0.00010216,-0.00176772,-0.00047071,0.00010
 554,-0.00009036,-0.00042557,0.00008008,-0.00001607,-0.00015252,0.00043
 214,-0.00018754,0.00007993,-0.00123411,0.00015370,-0.00000446,0.000528
 63,0.00031443\\\@


 ALTHOUGH J.J. COULD DIAGNOSE THE FAULTS OF AN
 APPARATUS WITH UNCANNY ACCURACY, IT WAS JUST AS
 WELL NOT TO LET HIM HANDLE IT.
   -- GEORGE THOMPSON, ABOUT HIS FATHER
 Job cpu time:       0 days  8 hours 43 minutes 20.4 seconds.
 Elapsed time:       0 days  8 hours 43 minutes 27.9 seconds.
 File lengths (MBytes):  RWF=   1952 Int=      0 D2E=      0 Chk=     64 Scr=     32
 Normal termination of Gaussian 16 at Wed Nov  7 12:55:17 2018.
