 Entering Gaussian System, Link 0=g16
 Input=rxn907.com
 Output=rxn907.log
 Initial command:
 /shared/centos7/gaussian/g16/l1.exe "/scratch/dinius.ab/QMscratch/Gau-38366.inp" -scrdir="/scratch/dinius.ab/QMscratch/"
 Entering Link 1 = /shared/centos7/gaussian/g16/l1.exe PID=     38367.
  
 Copyright (c) 1988,1990,1992,1993,1995,1998,2003,2009,2016,
            Gaussian, Inc.  All Rights Reserved.
  
 This is part of the Gaussian(R) 16 program.  It is based on
 the Gaussian(R) 09 system (copyright 2009, Gaussian, Inc.),
 the Gaussian(R) 03 system (copyright 2003, Gaussian, Inc.),
 the Gaussian(R) 98 system (copyright 1998, Gaussian, Inc.),
 the Gaussian(R) 94 system (copyright 1995, Gaussian, Inc.),
 the Gaussian 92(TM) system (copyright 1992, Gaussian, Inc.),
 the Gaussian 90(TM) system (copyright 1990, Gaussian, Inc.),
 the Gaussian 88(TM) system (copyright 1988, Gaussian, Inc.),
 the Gaussian 86(TM) system (copyright 1986, Carnegie Mellon
 University), and the Gaussian 82(TM) system (copyright 1983,
 Carnegie Mellon University). Gaussian is a federally registered
 trademark of Gaussian, Inc.
  
 This software contains proprietary and confidential information,
 including trade secrets, belonging to Gaussian, Inc.
  
 This software is provided under written license and may be
 used, copied, transmitted, or stored only in accord with that
 written license.
  
 The following legend is applicable only to US Government
 contracts under FAR:
  
                    RESTRICTED RIGHTS LEGEND
  
 Use, reproduction and disclosure by the US Government is
 subject to restrictions as set forth in subparagraphs (a)
 and (c) of the Commercial Computer Software - Restricted
 Rights clause in FAR 52.227-19.
  
 Gaussian, Inc.
 340 Quinnipiac St., Bldg. 40, Wallingford CT 06492
  
  
 ---------------------------------------------------------------
 Warning -- This program may not be used in any manner that
 competes with the business of Gaussian, Inc. or will provide
 assistance to any competitor of Gaussian, Inc.  The licensee
 of this program is prohibited from giving any competitor of
 Gaussian, Inc. access to this program.  By using this program,
 the user acknowledges that Gaussian, Inc. is engaged in the
 business of creating and licensing software in the field of
 computational chemistry and represents and warrants to the
 licensee that it is not a competitor of Gaussian, Inc. and that
 it will not use this program in any manner prohibited above.
 ---------------------------------------------------------------
  

 Cite this work as:
 Gaussian 16, Revision A.03,
 M. J. Frisch, G. W. Trucks, H. B. Schlegel, G. E. Scuseria, 
 M. A. Robb, J. R. Cheeseman, G. Scalmani, V. Barone, 
 G. A. Petersson, H. Nakatsuji, X. Li, M. Caricato, A. V. Marenich, 
 J. Bloino, B. G. Janesko, R. Gomperts, B. Mennucci, H. P. Hratchian, 
 J. V. Ortiz, A. F. Izmaylov, J. L. Sonnenberg, D. Williams-Young, 
 F. Ding, F. Lipparini, F. Egidi, J. Goings, B. Peng, A. Petrone, 
 T. Henderson, D. Ranasinghe, V. G. Zakrzewski, J. Gao, N. Rega, 
 G. Zheng, W. Liang, M. Hada, M. Ehara, K. Toyota, R. Fukuda, 
 J. Hasegawa, M. Ishida, T. Nakajima, Y. Honda, O. Kitao, H. Nakai, 
 T. Vreven, K. Throssell, J. A. Montgomery, Jr., J. E. Peralta, 
 F. Ogliaro, M. J. Bearpark, J. J. Heyd, E. N. Brothers, K. N. Kudin, 
 V. N. Staroverov, T. A. Keith, R. Kobayashi, J. Normand, 
 K. Raghavachari, A. P. Rendell, J. C. Burant, S. S. Iyengar, 
 J. Tomasi, M. Cossi, J. M. Millam, M. Klene, C. Adamo, R. Cammi, 
 J. W. Ochterski, R. L. Martin, K. Morokuma, O. Farkas, 
 J. B. Foresman, and D. J. Fox, Gaussian, Inc., Wallingford CT, 2016.
 
 ******************************************
 Gaussian 16:  EM64L-G16RevA.03 25-Dec-2016
                15-Jan-2019 
 ******************************************
 ----------------------------------------------------------------------
 #m062x/6-311+g(2df,2p) Opt=(ModRedun,Loose,maxcycle=1000) Int(Grid=SG1
 ) freq
 ----------------------------------------------------------------------
 1/6=1000,7=-1,18=120,19=15,26=2,38=1/1,3;
 2/9=110,12=2,17=6,18=5,40=1/2;
 3/5=4,6=6,7=214,11=2,25=1,30=1,71=1,74=-55,75=1/1,2,3;
 4//1;
 5/5=2,38=5/2;
 6/7=2,8=2,9=2,10=2,28=1/1;
 7//1,2,3,16;
 1/6=1000,7=-1,18=20,19=15,26=2/3(2);
 2/9=110/2;
 99//99;
 2/9=110/2;
 3/5=4,6=6,7=214,11=2,25=1,30=1,71=1,74=-55,75=1/1,2,3;
 4/5=5,16=3,69=1/1;
 5/5=2,38=5/2;
 7//1,2,3,16;
 1/6=1000,7=-1,18=20,19=15,26=2/3(-5);
 2/9=110/2;
 6/7=2,8=2,9=2,10=2,19=2,28=1/1;
 99/9=1/99;
 -----
 Title
 -----
 Symbolic Z-matrix:
 Charge =  0 Multiplicity = 1
 C                    -9.10581   2.56702   3.64917 
 C                    -9.40931   1.54366   2.75468 
 C                    -7.78088   2.95214   3.84198 
 H                    -9.90325   3.07255   4.18832 
 C                    -8.387     0.89946   2.06103 
 H                    -10.44355   1.24756   2.59741 
 C                    -7.05621   1.26818   2.26461 
 H                    -8.63142   0.09906   1.36664 
 C                    -6.75346   2.30624   3.15193 
 H                    -7.55257   3.76712   4.52489 
 C                    -5.31917   2.78395   3.30169 
 C                    -5.97548   0.5565    1.52916 
 C                    -4.70729   0.79113   1.84859 
 H                    -6.22571  -0.16957   0.75916 
 C                    -4.25592   1.71821   2.96358 
 H                    -3.91998   0.25566   1.32272 
 H                    -5.13932   3.20768   4.29317 
 H                    -4.0789    1.11301   3.85625 
 C                    -2.93178   2.41462   2.59151 
 H                    -2.15015   1.67291   2.40769 
 H                    -2.59703   3.07264   3.39969 
 H                    -3.05606   3.01326   1.68517 
 O                    -2.02185   3.787     4.01154 
 O                    -0.83529   4.34245   4.67873 
 H                    -0.51078   4.92336   3.96613 
 
 The following ModRedundant input section has been read:
 B      19      21 F                                                           
 B      21      23 F                                                           
 

 GradGradGradGradGradGradGradGradGradGradGradGradGradGradGradGradGradGrad
 Berny optimization.
 Initialization pass.
                           ----------------------------
                           !    Initial Parameters    !
                           ! (Angstroms and Degrees)  !
 --------------------------                            --------------------------
 ! Name  Definition              Value          Derivative Info.                !
 --------------------------------------------------------------------------------
 ! R1    R(1,2)                  1.3927         estimate D2E/DX2                !
 ! R2    R(1,3)                  1.3932         estimate D2E/DX2                !
 ! R3    R(1,4)                  1.0873         estimate D2E/DX2                !
 ! R4    R(2,5)                  1.3933         estimate D2E/DX2                !
 ! R5    R(2,6)                  1.0872         estimate D2E/DX2                !
 ! R6    R(3,9)                  1.396          estimate D2E/DX2                !
 ! R7    R(3,10)                 1.0875         estimate D2E/DX2                !
 ! R8    R(5,7)                  1.3959         estimate D2E/DX2                !
 ! R9    R(5,8)                  1.0875         estimate D2E/DX2                !
 ! R10   R(7,9)                  1.3988         estimate D2E/DX2                !
 ! R11   R(7,12)                 1.4884         estimate D2E/DX2                !
 ! R12   R(9,11)                 1.5192         estimate D2E/DX2                !
 ! R13   R(11,15)                1.5429         estimate D2E/DX2                !
 ! R14   R(11,17)                1.0931         estimate D2E/DX2                !
 ! R15   R(12,13)                1.3287         estimate D2E/DX2                !
 ! R16   R(12,14)                1.0875         estimate D2E/DX2                !
 ! R17   R(13,15)                1.5187         estimate D2E/DX2                !
 ! R18   R(13,16)                1.0877         estimate D2E/DX2                !
 ! R19   R(15,18)                1.0929         estimate D2E/DX2                !
 ! R20   R(15,19)                1.5417         estimate D2E/DX2                !
 ! R21   R(19,20)                1.0931         estimate D2E/DX2                !
 ! R22   R(19,21)                1.0946         Frozen                          !
 ! R23   R(19,22)                1.0933         estimate D2E/DX2                !
 ! R24   R(21,23)                1.1025         Frozen                          !
 ! R25   R(23,24)                1.4702         estimate D2E/DX2                !
 ! R26   R(24,25)                0.975          estimate D2E/DX2                !
 ! A1    A(2,1,3)              119.9521         estimate D2E/DX2                !
 ! A2    A(2,1,4)              120.0212         estimate D2E/DX2                !
 ! A3    A(3,1,4)              120.0232         estimate D2E/DX2                !
 ! A4    A(1,2,5)              119.9745         estimate D2E/DX2                !
 ! A5    A(1,2,6)              120.0227         estimate D2E/DX2                !
 ! A6    A(5,2,6)              120.0028         estimate D2E/DX2                !
 ! A7    A(1,3,9)              120.2382         estimate D2E/DX2                !
 ! A8    A(1,3,10)             119.5854         estimate D2E/DX2                !
 ! A9    A(9,3,10)             120.1726         estimate D2E/DX2                !
 ! A10   A(2,5,7)              120.3177         estimate D2E/DX2                !
 ! A11   A(2,5,8)              119.5572         estimate D2E/DX2                !
 ! A12   A(7,5,8)              120.1219         estimate D2E/DX2                !
 ! A13   A(5,7,9)              119.6635         estimate D2E/DX2                !
 ! A14   A(5,7,12)             119.5962         estimate D2E/DX2                !
 ! A15   A(9,7,12)             120.7395         estimate D2E/DX2                !
 ! A16   A(3,9,7)              119.8426         estimate D2E/DX2                !
 ! A17   A(3,9,11)             120.0412         estimate D2E/DX2                !
 ! A18   A(7,9,11)             120.0166         estimate D2E/DX2                !
 ! A19   A(9,11,15)            114.3186         estimate D2E/DX2                !
 ! A20   A(9,11,17)            111.5089         estimate D2E/DX2                !
 ! A21   A(15,11,17)           110.6787         estimate D2E/DX2                !
 ! A22   A(7,12,13)            119.3284         estimate D2E/DX2                !
 ! A23   A(7,12,14)            120.1334         estimate D2E/DX2                !
 ! A24   A(13,12,14)           120.5131         estimate D2E/DX2                !
 ! A25   A(12,13,15)           124.6097         estimate D2E/DX2                !
 ! A26   A(12,13,16)           119.1898         estimate D2E/DX2                !
 ! A27   A(15,13,16)           116.1255         estimate D2E/DX2                !
 ! A28   A(11,15,13)           112.1929         estimate D2E/DX2                !
 ! A29   A(11,15,18)           108.368          estimate D2E/DX2                !
 ! A30   A(11,15,19)           109.4355         estimate D2E/DX2                !
 ! A31   A(13,15,18)           108.0452         estimate D2E/DX2                !
 ! A32   A(13,15,19)           110.7222         estimate D2E/DX2                !
 ! A33   A(18,15,19)           107.9476         estimate D2E/DX2                !
 ! A34   A(15,19,20)           110.3793         estimate D2E/DX2                !
 ! A35   A(15,19,21)           110.8561         estimate D2E/DX2                !
 ! A36   A(15,19,22)           110.4741         estimate D2E/DX2                !
 ! A37   A(20,19,21)           108.263          estimate D2E/DX2                !
 ! A38   A(20,19,22)           108.2653         estimate D2E/DX2                !
 ! A39   A(21,19,22)           108.5223         estimate D2E/DX2                !
 ! A40   A(19,21,23)           163.4942         estimate D2E/DX2                !
 ! A41   A(21,23,24)           156.5892         estimate D2E/DX2                !
 ! A42   A(23,24,25)            99.3255         estimate D2E/DX2                !
 ! D1    D(3,1,2,5)              0.4742         estimate D2E/DX2                !
 ! D2    D(3,1,2,6)           -179.5121         estimate D2E/DX2                !
 ! D3    D(4,1,2,5)            179.7901         estimate D2E/DX2                !
 ! D4    D(4,1,2,6)             -0.1962         estimate D2E/DX2                !
 ! D5    D(2,1,3,9)             -0.676          estimate D2E/DX2                !
 ! D6    D(2,1,3,10)           178.6143         estimate D2E/DX2                !
 ! D7    D(4,1,3,9)           -179.9919         estimate D2E/DX2                !
 ! D8    D(4,1,3,10)            -0.7016         estimate D2E/DX2                !
 ! D9    D(1,2,5,7)              0.4473         estimate D2E/DX2                !
 ! D10   D(1,2,5,8)            179.8005         estimate D2E/DX2                !
 ! D11   D(6,2,5,7)           -179.5664         estimate D2E/DX2                !
 ! D12   D(6,2,5,8)             -0.2132         estimate D2E/DX2                !
 ! D13   D(1,3,9,7)             -0.0424         estimate D2E/DX2                !
 ! D14   D(1,3,9,11)           176.3305         estimate D2E/DX2                !
 ! D15   D(10,3,9,7)          -179.3285         estimate D2E/DX2                !
 ! D16   D(10,3,9,11)           -2.9556         estimate D2E/DX2                !
 ! D17   D(2,5,7,9)             -1.1621         estimate D2E/DX2                !
 ! D18   D(2,5,7,12)           179.1555         estimate D2E/DX2                !
 ! D19   D(8,5,7,9)            179.4884         estimate D2E/DX2                !
 ! D20   D(8,5,7,12)            -0.194          estimate D2E/DX2                !
 ! D21   D(5,7,9,3)              0.9571         estimate D2E/DX2                !
 ! D22   D(5,7,9,11)          -175.4167         estimate D2E/DX2                !
 ! D23   D(12,7,9,3)          -179.3642         estimate D2E/DX2                !
 ! D24   D(12,7,9,11)            4.262          estimate D2E/DX2                !
 ! D25   D(5,7,12,13)         -171.5164         estimate D2E/DX2                !
 ! D26   D(5,7,12,14)            6.6691         estimate D2E/DX2                !
 ! D27   D(9,7,12,13)            8.8047         estimate D2E/DX2                !
 ! D28   D(9,7,12,14)         -173.0098         estimate D2E/DX2                !
 ! D29   D(3,9,11,15)          157.514          estimate D2E/DX2                !
 ! D30   D(3,9,11,17)           31.0292         estimate D2E/DX2                !
 ! D31   D(7,9,11,15)          -26.1194         estimate D2E/DX2                !
 ! D32   D(7,9,11,17)         -152.6043         estimate D2E/DX2                !
 ! D33   D(9,11,15,13)          33.88           estimate D2E/DX2                !
 ! D34   D(9,11,15,18)         -85.3269         estimate D2E/DX2                !
 ! D35   D(9,11,15,19)         157.1911         estimate D2E/DX2                !
 ! D36   D(17,11,15,13)        160.7944         estimate D2E/DX2                !
 ! D37   D(17,11,15,18)         41.5876         estimate D2E/DX2                !
 ! D38   D(17,11,15,19)        -75.8944         estimate D2E/DX2                !
 ! D39   D(7,12,13,15)           2.1171         estimate D2E/DX2                !
 ! D40   D(7,12,13,16)         178.8384         estimate D2E/DX2                !
 ! D41   D(14,12,13,15)       -176.0614         estimate D2E/DX2                !
 ! D42   D(14,12,13,16)          0.6599         estimate D2E/DX2                !
 ! D43   D(12,13,15,11)        -23.7323         estimate D2E/DX2                !
 ! D44   D(12,13,15,18)         95.6638         estimate D2E/DX2                !
 ! D45   D(12,13,15,19)       -146.3178         estimate D2E/DX2                !
 ! D46   D(16,13,15,11)        159.4557         estimate D2E/DX2                !
 ! D47   D(16,13,15,18)        -81.1482         estimate D2E/DX2                !
 ! D48   D(16,13,15,19)         36.8702         estimate D2E/DX2                !
 ! D49   D(11,15,19,20)        176.5801         estimate D2E/DX2                !
 ! D50   D(11,15,19,21)         56.628          estimate D2E/DX2                !
 ! D51   D(11,15,19,22)        -63.7112         estimate D2E/DX2                !
 ! D52   D(13,15,19,20)        -59.2434         estimate D2E/DX2                !
 ! D53   D(13,15,19,21)       -179.1954         estimate D2E/DX2                !
 ! D54   D(13,15,19,22)         60.4653         estimate D2E/DX2                !
 ! D55   D(18,15,19,20)         58.8346         estimate D2E/DX2                !
 ! D56   D(18,15,19,21)        -61.1175         estimate D2E/DX2                !
 ! D57   D(18,15,19,22)        178.5433         estimate D2E/DX2                !
 ! D58   D(15,19,21,23)        179.8167         estimate D2E/DX2                !
 ! D59   D(20,19,21,23)         58.6089         estimate D2E/DX2                !
 ! D60   D(22,19,21,23)        -58.69           estimate D2E/DX2                !
 ! D61   D(19,21,23,24)        -51.0907         estimate D2E/DX2                !
 ! D62   D(21,23,24,25)         90.7865         estimate D2E/DX2                !
 --------------------------------------------------------------------------------
 Trust Radius=3.00D-01 FncErr=1.00D-05 GrdErr=1.00D-04 EigMax=2.50D+02 EigMin=1.00D-04
 Number of steps in this run=    150 maximum allowed number of steps=    150.
 GradGradGradGradGradGradGradGradGradGradGradGradGradGradGradGradGradGrad

                          Input orientation:                          
 ---------------------------------------------------------------------
 Center     Atomic      Atomic             Coordinates (Angstroms)
 Number     Number       Type             X           Y           Z
 ---------------------------------------------------------------------
      1          6           0       -9.105810    2.567020    3.649170
      2          6           0       -9.409310    1.543660    2.754680
      3          6           0       -7.780880    2.952140    3.841980
      4          1           0       -9.903250    3.072550    4.188320
      5          6           0       -8.387000    0.899460    2.061030
      6          1           0      -10.443550    1.247560    2.597410
      7          6           0       -7.056210    1.268180    2.264610
      8          1           0       -8.631420    0.099060    1.366640
      9          6           0       -6.753460    2.306240    3.151930
     10          1           0       -7.552570    3.767120    4.524890
     11          6           0       -5.319170    2.783950    3.301690
     12          6           0       -5.975480    0.556500    1.529160
     13          6           0       -4.707290    0.791130    1.848590
     14          1           0       -6.225710   -0.169570    0.759160
     15          6           0       -4.255920    1.718210    2.963580
     16          1           0       -3.919980    0.255660    1.322720
     17          1           0       -5.139320    3.207680    4.293170
     18          1           0       -4.078900    1.113010    3.856250
     19          6           0       -2.931780    2.414620    2.591510
     20          1           0       -2.150150    1.672910    2.407690
     21          1           0       -2.597030    3.072640    3.399690
     22          1           0       -3.056060    3.013260    1.685170
     23          8           0       -2.021850    3.787000    4.011540
     24          8           0       -0.835290    4.342450    4.678730
     25          1           0       -0.510780    4.923360    3.966130
 ---------------------------------------------------------------------
                    Distance matrix (angstroms):
                    1          2          3          4          5
     1  C    0.000000
     2  C    1.392656   0.000000
     3  C    1.393174   2.412016   0.000000
     4  H    1.087269   2.153324   2.153812   0.000000
     5  C    2.412392   1.393292   2.784360   3.398043   0.000000
     6  H    2.153305   1.087226   3.397699   2.480626   2.153665
     7  C    2.793717   2.419326   2.418463   3.880985   1.395851
     8  H    3.394969   2.149101   3.871794   4.291978   1.087455
     9  C    2.418430   2.791572   1.396047   3.403309   2.416101
    10  H    2.149344   3.394834   1.087513   2.474147   3.871738
    11  C    3.808733   4.308919   2.525909   4.677947   3.808165
    12  C    4.282009   3.777244   3.787835   5.369266   2.493178
    13  C    5.073741   4.847297   4.253296   6.138177   3.687429
    14  H    4.912846   4.129475   4.654826   5.982874   2.740231
    15  C    4.971111   5.160575   3.836602   5.935197   4.307060
    16  H    6.135763   5.817405   5.340807   7.207361   4.573166
    17  H    4.069180   4.834121   2.691972   4.766999   4.567029
    18  H    5.237065   5.460054   4.133674   6.154114   4.672060
    19  C    6.265821   6.537858   5.036504   7.182205   5.686523
    20  H    7.121932   7.268598   5.949684   8.077140   6.294180
    21  H    6.533155   7.011489   5.204079   7.348659   6.327596
    22  H    6.376198   6.608128   5.194178   7.290630   5.747029
    23  O    7.197371   7.822202   5.821698   7.915690   7.256550
    24  O    8.521364   9.222202   7.132625   9.169572   8.702578
    25  H    8.917810   9.595510   7.533623   9.575665   9.047432
                    6          7          8          9         10
     6  H    0.000000
     7  C    3.403712   0.000000
     8  H    2.473391   2.157424   0.000000
     9  C    3.878796   1.398772   3.403768   0.000000
    10  H    4.291984   3.405868   4.959146   2.158186   0.000000
    11  C    5.395904   2.527924   4.682313   1.519152   2.729637
    12  C    4.645683   1.488406   2.699941   2.510025   4.665800
    13  C    5.802908   2.432709   4.013731   2.860256   4.910674
    14  H    4.814311   2.241257   2.495723   3.483318   5.607032
    15  C    6.216298   2.921080   4.931213   2.572734   4.183733
    16  H    6.720541   3.427578   4.714246   3.947087   5.981635
    17  H    5.903603   3.398703   5.515692   2.172664   2.488060
    18  H    6.489341   3.379611   5.286936   3.012165   4.422416
    19  C    7.601891   4.293263   6.272800   3.864072   5.188344
    20  H    8.306467   4.924805   6.750381   4.705897   6.168824
    21  H    8.095829   4.942547   7.027754   4.233753   5.128914
    22  H    7.650156   4.402528   6.299100   4.040053   5.371305
    23  O    8.909183   5.894150   8.017656   5.031870   5.554529
    24  O   10.306740   7.347037   9.473961   6.442205   6.743628
    25  H   10.679177   7.687533   9.796735   6.817866   7.157926
                   11         12         13         14         15
    11  C    0.000000
    12  C    2.921325   0.000000
    13  C    2.541108   1.328681   0.000000
    14  H    4.001194   1.087517   2.101286   0.000000
    15  C    1.542926   2.522700   1.518689   3.507599   0.000000
    16  H    3.502329   2.087631   1.087715   2.411392   2.223585
    17  H    1.093127   3.920162   3.464439   5.007523   2.183283
    18  H    2.153566   3.053206   2.128187   3.980675   1.092915
    19  C    2.518013   3.720928   2.517953   4.570068   1.541678
    20  H    3.475102   4.080605   2.762081   4.766820   2.178379
    21  H    2.739159   4.609096   3.473384   5.536393   2.185541
    22  H    2.790589   3.818772   2.773288   4.586347   2.179713
    23  O    3.518851   5.677106   4.567842   6.626074   3.220121
    24  O    4.942706   7.118621   5.967742   8.048477   4.639944
    25  H    5.304637   7.407512   6.258594   8.299579   5.030325
                   16         17         18         19         20
    16  H    0.000000
    17  H    4.361741   0.000000
    18  H    2.679380   2.388102   0.000000
    19  C    2.692114   2.897900   2.147007   0.000000
    20  H    2.513574   3.853011   2.476265   1.093101   0.000000
    21  H    3.741574   2.698107   2.498907   1.094624   1.772854
    22  H    2.912402   3.343566   3.061166   1.093283   1.771792
    23  O    4.827319   3.183323   3.377246   2.174370   2.656722
    24  O    6.122089   4.467777   4.650458   3.531046   3.743384
    25  H    6.355917   4.947110   5.221333   3.747612   3.960012
                   21         22         23         24         25
    21  H    0.000000
    22  H    1.775898   0.000000
    23  O    1.102498   2.660876   0.000000
    24  O    2.520335   3.957268   1.470235   0.000000
    25  H    2.845779   3.915317   1.891219   0.974968   0.000000
 Stoichiometry    C11H12O2
 Framework group  C1[X(C11H12O2)]
 Deg. of freedom    69
 Full point group                 C1      NOp   1
 Largest Abelian subgroup         C1      NOp   1
 Largest concise Abelian subgroup C1      NOp   1
                         Standard orientation:                         
 ---------------------------------------------------------------------
 Center     Atomic      Atomic             Coordinates (Angstroms)
 Number     Number       Type             X           Y           Z
 ---------------------------------------------------------------------
      1          6           0        3.221373   -1.768773    0.011938
      2          6           0        3.933790   -0.572254   -0.005268
      3          6           0        1.828508   -1.749363   -0.009988
      4          1           0        3.751984   -2.717579    0.031224
      5          6           0        3.252873    0.642968   -0.034398
      6          1           0        5.020889   -0.586233    0.003798
      7          6           0        1.857263    0.668778   -0.037068
      8          1           0        3.815921    1.573256   -0.044405
      9          6           0        1.142643   -0.533668   -0.034964
     10          1           0        1.278535   -2.687514   -0.019244
     11          6           0       -0.372580   -0.517391   -0.142942
     12          6           0        1.146239    1.976313   -0.049299
     13          6           0       -0.171478    2.002161    0.119065
     14          1           0        1.706324    2.901266   -0.165317
     15          6           0       -1.032599    0.777609    0.374718
     16          1           0       -0.686340    2.960256    0.128781
     17          1           0       -0.817791   -1.394692    0.333562
     18          1           0       -1.175522    0.683604    1.454162
     19          6           0       -2.420681    0.941383   -0.275800
     20          1           0       -2.927706    1.822573    0.125821
     21          1           0       -3.048186    0.065929   -0.080810
     22          1           0       -2.323765    1.065197   -1.357717
     23          8           0       -3.887891   -0.648004   -0.054369
     24          8           0       -5.272098   -1.095594    0.158292
     25          1           0       -5.626545   -0.943862   -0.737201
 ---------------------------------------------------------------------
 Rotational constants (GHZ):           1.7748082           0.3493305           0.2946858
 Standard basis: 6-311+G(2df,2p) (5D, 7F)
 There are   615 symmetry adapted cartesian basis functions of A   symmetry.
 There are   550 symmetry adapted basis functions of A   symmetry.
   550 basis functions,   808 primitive gaussians,   615 cartesian basis functions
    47 alpha electrons       47 beta electrons
       nuclear repulsion energy       714.6409073082 Hartrees.
 NAtoms=   25 NActive=   25 NUniq=   25 SFac= 1.00D+00 NAtFMM=   60 NAOKFM=F Big=F
 Integral buffers will be    131072 words long.
 Raffenetti 2 integral format.
 Two-electron integral symmetry is turned on.
 One-electron integrals computed using PRISM.
 NBasis=   550 RedAO= T EigKep=  1.27D-06  NBF=   550
 NBsUse=   549 1.00D-06 EigRej=  5.94D-07 NBFU=   549
 ExpMin= 4.38D-02 ExpMax= 8.59D+03 ExpMxC= 1.30D+03 IAcc=2 IRadAn=         4 AccDes= 0.00D+00
 Harris functional with IExCor= 1009 and IRadAn=       4 diagonalized for initial guess.
 HarFok:  IExCor= 1009 AccDes= 0.00D+00 IRadAn=         4 IDoV= 1 UseB2=F ITyADJ=14
 ICtDFT=  3500011 ScaDFX=  1.000000  1.000000  1.000000  1.000000
 FoFCou: FMM=F IPFlag=           0 FMFlag=      100000 FMFlg1=           0
         NFxFlg=           0 DoJE=T BraDBF=F KetDBF=T FulRan=T
         wScrn=  0.000000 ICntrl=       500 IOpCl=  0 I1Cent=   200000004 NGrid=           0
         NMat0=    1 NMatS0=      1 NMatT0=    0 NMatD0=    1 NMtDS0=    0 NMtDT0=    0
 Petite list used in FoFCou.
 Requested convergence on RMS density matrix=1.00D-08 within 128 cycles.
 Requested convergence on MAX density matrix=1.00D-06.
 Requested convergence on             energy=1.00D-06.
 No special actions if energy rises.
 Rare condition: small coef for last iteration:  0.000D+00
 Restarting incremental Fock formation.
 SCF Done:  E(RM062X) =  -576.427695459     A.U. after   22 cycles
            NFock= 22  Conv=0.38D-08     -V/T= 2.0038

 **********************************************************************

            Population analysis using the SCF density.

 **********************************************************************

 Orbital symmetries:
       Occupied  (A) (A) (A) (A) (A) (A) (A) (A) (A) (A) (A) (A)
                 (A) (A) (A) (A) (A) (A) (A) (A) (A) (A) (A) (A)
                 (A) (A) (A) (A) (A) (A) (A) (A) (A) (A) (A) (A)
                 (A) (A) (A) (A) (A) (A) (A) (A) (A) (A) (A)
       Virtual   (A) (A) (A) (A) (A) (A) (A) (A) (A) (A) (A) (A)
                 (A) (A) (A) (A) (A) (A) (A) (A) (A) (A) (A) (A)
                 (A) (A) (A) (A) (A) (A) (A) (A) (A) (A) (A) (A)
                 (A) (A) (A) (A) (A) (A) (A) (A) (A) (A) (A) (A)
                 (A) (A) (A) (A) (A) (A) (A) (A) (A) (A) (A) (A)
                 (A) (A) (A) (A) (A) (A) (A) (A) (A) (A) (A) (A)
                 (A) (A) (A) (A) (A) (A) (A) (A) (A) (A) (A) (A)
                 (A) (A) (A) (A) (A) (A) (A) (A) (A) (A) (A) (A)
                 (A) (A) (A) (A) (A) (A) (A) (A) (A) (A) (A) (A)
                 (A) (A) (A) (A) (A) (A) (A) (A) (A) (A) (A) (A)
                 (A) (A) (A) (A) (A) (A) (A) (A) (A) (A) (A) (A)
                 (A) (A) (A) (A) (A) (A) (A) (A) (A) (A) (A) (A)
                 (A) (A) (A) (A) (A) (A) (A) (A) (A) (A) (A) (A)
                 (A) (A) (A) (A) (A) (A) (A) (A) (A) (A) (A) (A)
                 (A) (A) (A) (A) (A) (A) (A) (A) (A) (A) (A) (A)
                 (A) (A) (A) (A) (A) (A) (A) (A) (A) (A) (A) (A)
                 (A) (A) (A) (A) (A) (A) (A) (A) (A) (A) (A) (A)
                 (A) (A) (A) (A) (A) (A) (A) (A) (A) (A) (A) (A)
                 (A) (A) (A) (A) (A) (A) (A) (A) (A) (A) (A) (A)
                 (A) (A) (A) (A) (A) (A) (A) (A) (A) (A) (A) (A)
                 (A) (A) (A) (A) (A) (A) (A) (A) (A) (A) (A) (A)
                 (A) (A) (A) (A) (A) (A) (A) (A) (A) (A) (A) (A)
                 (A) (A) (A) (A) (A) (A) (A) (A) (A) (A) (A) (A)
                 (A) (A) (A) (A) (A) (A) (A) (A) (A) (A) (A) (A)
                 (A) (A) (A) (A) (A) (A) (A) (A) (A) (A) (A) (A)
                 (A) (A) (A) (A) (A) (A) (A) (A) (A) (A) (A) (A)
                 (A) (A) (A) (A) (A) (A) (A) (A) (A) (A) (A) (A)
                 (A) (A) (A) (A) (A) (A) (A) (A) (A) (A) (A) (A)
                 (A) (A) (A) (A) (A) (A) (A) (A) (A) (A) (A) (A)
                 (A) (A) (A) (A) (A) (A) (A) (A) (A) (A) (A) (A)
                 (A) (A) (A) (A) (A) (A) (A) (A) (A) (A) (A) (A)
                 (A) (A) (A) (A) (A) (A) (A) (A) (A) (A) (A) (A)
                 (A) (A) (A) (A) (A) (A) (A) (A) (A) (A) (A) (A)
                 (A) (A) (A) (A) (A) (A) (A) (A) (A) (A) (A) (A)
                 (A) (A) (A) (A) (A) (A) (A) (A) (A) (A) (A) (A)
                 (A) (A) (A) (A) (A) (A) (A) (A) (A) (A) (A) (A)
                 (A) (A) (A) (A) (A) (A) (A) (A) (A) (A) (A) (A)
                 (A) (A) (A) (A) (A) (A) (A) (A) (A) (A) (A) (A)
                 (A) (A) (A) (A) (A) (A) (A) (A) (A) (A) (A) (A)
                 (A) (A) (A) (A) (A) (A) (A) (A) (A) (A) (A) (A)
                 (A) (A) (A) (A) (A) (A) (A) (A) (A) (A) (A) (A)
                 (A) (A) (A) (A) (A) (A) (A) (A) (A) (A)
 The electronic state is 1-A.
 Alpha  occ. eigenvalues --  -19.62234 -19.57707 -10.62314 -10.59890 -10.59809
 Alpha  occ. eigenvalues --  -10.58683 -10.58525 -10.58416 -10.57943 -10.57937
 Alpha  occ. eigenvalues --  -10.57631 -10.57404 -10.50673  -1.14411  -1.01597
 Alpha  occ. eigenvalues --   -0.95688  -0.93639  -0.90409  -0.88085  -0.85055
 Alpha  occ. eigenvalues --   -0.77838  -0.73069  -0.71595  -0.70365  -0.62404
 Alpha  occ. eigenvalues --   -0.61343  -0.59044  -0.56681  -0.55212  -0.53931
 Alpha  occ. eigenvalues --   -0.52884  -0.51631  -0.50628  -0.49040  -0.48459
 Alpha  occ. eigenvalues --   -0.45891  -0.45540  -0.43462  -0.42127  -0.41330
 Alpha  occ. eigenvalues --   -0.40039  -0.39069  -0.36191  -0.32460  -0.31275
 Alpha  occ. eigenvalues --   -0.29779  -0.22154
 Alpha virt. eigenvalues --   -0.14091  -0.03387  -0.00852  -0.00459   0.00638
 Alpha virt. eigenvalues --    0.01326   0.02730   0.02974   0.04029   0.04421
 Alpha virt. eigenvalues --    0.04662   0.05399   0.05740   0.05865   0.06139
 Alpha virt. eigenvalues --    0.07824   0.08588   0.09356   0.09699   0.10011
 Alpha virt. eigenvalues --    0.10463   0.11256   0.11820   0.12061   0.12377
 Alpha virt. eigenvalues --    0.13021   0.13474   0.14625   0.15268   0.15436
 Alpha virt. eigenvalues --    0.15680   0.16444   0.17100   0.17398   0.17463
 Alpha virt. eigenvalues --    0.17772   0.18492   0.18971   0.19312   0.19643
 Alpha virt. eigenvalues --    0.19808   0.20484   0.20607   0.20935   0.21571
 Alpha virt. eigenvalues --    0.21819   0.22197   0.22375   0.22885   0.23438
 Alpha virt. eigenvalues --    0.24426   0.24469   0.25008   0.25143   0.25575
 Alpha virt. eigenvalues --    0.25704   0.26636   0.26913   0.28043   0.28204
 Alpha virt. eigenvalues --    0.28477   0.28698   0.29614   0.30383   0.30802
 Alpha virt. eigenvalues --    0.31652   0.33256   0.33682   0.33785   0.35316
 Alpha virt. eigenvalues --    0.36205   0.37322   0.37807   0.39235   0.40771
 Alpha virt. eigenvalues --    0.41187   0.43608   0.44418   0.45801   0.46729
 Alpha virt. eigenvalues --    0.47297   0.48508   0.49034   0.49573   0.51082
 Alpha virt. eigenvalues --    0.51939   0.52582   0.53452   0.54031   0.54252
 Alpha virt. eigenvalues --    0.55131   0.55583   0.56325   0.57086   0.57407
 Alpha virt. eigenvalues --    0.58376   0.58828   0.59534   0.59960   0.60271
 Alpha virt. eigenvalues --    0.61893   0.62734   0.62998   0.63303   0.64131
 Alpha virt. eigenvalues --    0.64599   0.65384   0.65789   0.65943   0.66706
 Alpha virt. eigenvalues --    0.66964   0.67419   0.67945   0.68338   0.69066
 Alpha virt. eigenvalues --    0.69516   0.70297   0.70770   0.71408   0.71822
 Alpha virt. eigenvalues --    0.72824   0.73231   0.74067   0.74810   0.76442
 Alpha virt. eigenvalues --    0.77246   0.78108   0.79272   0.79414   0.79874
 Alpha virt. eigenvalues --    0.80528   0.81325   0.82208   0.83313   0.84968
 Alpha virt. eigenvalues --    0.86633   0.87638   0.88234   0.88450   0.89874
 Alpha virt. eigenvalues --    0.91015   0.91985   0.94231   0.95650   0.96371
 Alpha virt. eigenvalues --    0.97730   0.98299   0.99164   1.00637   1.01287
 Alpha virt. eigenvalues --    1.01584   1.02876   1.04209   1.06286   1.06497
 Alpha virt. eigenvalues --    1.07044   1.07501   1.09127   1.09682   1.10712
 Alpha virt. eigenvalues --    1.11698   1.11908   1.13960   1.14350   1.15652
 Alpha virt. eigenvalues --    1.16441   1.17644   1.18036   1.18728   1.19762
 Alpha virt. eigenvalues --    1.21044   1.22935   1.23186   1.25285   1.25531
 Alpha virt. eigenvalues --    1.25894   1.28130   1.29248   1.29864   1.29991
 Alpha virt. eigenvalues --    1.30673   1.31401   1.32368   1.32822   1.33980
 Alpha virt. eigenvalues --    1.34337   1.34720   1.35798   1.36474   1.37473
 Alpha virt. eigenvalues --    1.38091   1.38810   1.40163   1.41509   1.42158
 Alpha virt. eigenvalues --    1.43440   1.44116   1.44422   1.45955   1.46611
 Alpha virt. eigenvalues --    1.47366   1.48784   1.49666   1.50804   1.51214
 Alpha virt. eigenvalues --    1.53437   1.53541   1.54827   1.56040   1.58711
 Alpha virt. eigenvalues --    1.61306   1.62516   1.63950   1.65080   1.65650
 Alpha virt. eigenvalues --    1.66437   1.67839   1.68444   1.69086   1.69354
 Alpha virt. eigenvalues --    1.72292   1.72933   1.74150   1.75480   1.75941
 Alpha virt. eigenvalues --    1.76446   1.78489   1.81705   1.84150   1.85218
 Alpha virt. eigenvalues --    1.86925   1.90154   1.92442   1.95258   1.97113
 Alpha virt. eigenvalues --    1.99558   2.01693   2.04092   2.12124   2.14819
 Alpha virt. eigenvalues --    2.25979   2.28704   2.30840   2.41967   2.45596
 Alpha virt. eigenvalues --    2.48192   2.51192   2.51853   2.54719   2.56028
 Alpha virt. eigenvalues --    2.56655   2.58965   2.61825   2.64290   2.65114
 Alpha virt. eigenvalues --    2.66861   2.67448   2.68273   2.69149   2.70543
 Alpha virt. eigenvalues --    2.71291   2.72347   2.73493   2.73738   2.73882
 Alpha virt. eigenvalues --    2.75413   2.75811   2.76764   2.78152   2.78850
 Alpha virt. eigenvalues --    2.80020   2.80590   2.81312   2.81386   2.82698
 Alpha virt. eigenvalues --    2.83190   2.84013   2.84509   2.85356   2.85954
 Alpha virt. eigenvalues --    2.86815   2.87518   2.88276   2.89190   2.90380
 Alpha virt. eigenvalues --    2.91294   2.91824   2.94666   2.95322   2.97930
 Alpha virt. eigenvalues --    2.98854   3.00350   3.02414   3.02827   3.04072
 Alpha virt. eigenvalues --    3.06371   3.07605   3.09708   3.10723   3.11367
 Alpha virt. eigenvalues --    3.11566   3.13767   3.14832   3.15185   3.15402
 Alpha virt. eigenvalues --    3.16747   3.17270   3.17638   3.19401   3.21198
 Alpha virt. eigenvalues --    3.21594   3.22314   3.23656   3.24919   3.25542
 Alpha virt. eigenvalues --    3.26629   3.27132   3.28735   3.30241   3.32423
 Alpha virt. eigenvalues --    3.33153   3.33905   3.34176   3.35344   3.36529
 Alpha virt. eigenvalues --    3.37548   3.37823   3.38907   3.39817   3.41773
 Alpha virt. eigenvalues --    3.41909   3.42699   3.44437   3.44811   3.45597
 Alpha virt. eigenvalues --    3.47279   3.47843   3.49676   3.50347   3.51966
 Alpha virt. eigenvalues --    3.53141   3.55371   3.56575   3.57718   3.58882
 Alpha virt. eigenvalues --    3.62194   3.62968   3.63731   3.65017   3.65515
 Alpha virt. eigenvalues --    3.67408   3.67545   3.69111   3.70387   3.70698
 Alpha virt. eigenvalues --    3.71675   3.72315   3.73187   3.74148   3.74982
 Alpha virt. eigenvalues --    3.76212   3.78428   3.79528   3.80548   3.81587
 Alpha virt. eigenvalues --    3.82213   3.83247   3.85641   3.85943   3.88549
 Alpha virt. eigenvalues --    3.89871   3.91652   3.93332   3.94316   3.95473
 Alpha virt. eigenvalues --    3.96103   3.98664   3.99500   4.01877   4.03847
 Alpha virt. eigenvalues --    4.04449   4.05444   4.06367   4.09236   4.10189
 Alpha virt. eigenvalues --    4.11838   4.12196   4.13701   4.14681   4.16003
 Alpha virt. eigenvalues --    4.17951   4.19607   4.20479   4.22209   4.23825
 Alpha virt. eigenvalues --    4.26796   4.27230   4.28411   4.28747   4.29736
 Alpha virt. eigenvalues --    4.30677   4.31213   4.33235   4.33321   4.35306
 Alpha virt. eigenvalues --    4.37236   4.37613   4.38962   4.39388   4.41591
 Alpha virt. eigenvalues --    4.42414   4.42817   4.44150   4.46166   4.47231
 Alpha virt. eigenvalues --    4.48728   4.50437   4.52496   4.54786   4.56003
 Alpha virt. eigenvalues --    4.57097   4.58432   4.61852   4.65089   4.66616
 Alpha virt. eigenvalues --    4.68885   4.69919   4.72026   4.72612   4.77191
 Alpha virt. eigenvalues --    4.79001   4.80239   4.82017   4.83386   4.88943
 Alpha virt. eigenvalues --    4.91435   4.96261   4.97341   4.98435   5.00906
 Alpha virt. eigenvalues --    5.03586   5.05166   5.09132   5.12076   5.13114
 Alpha virt. eigenvalues --    5.14855   5.15702   5.16386   5.19355   5.24637
 Alpha virt. eigenvalues --    5.25688   5.29277   5.30719   5.31672   5.36922
 Alpha virt. eigenvalues --    5.39821   5.42509   5.43416   5.43858   5.47436
 Alpha virt. eigenvalues --    5.55319   5.55815   5.59153   5.62382   5.65097
 Alpha virt. eigenvalues --    5.65641   5.67165   5.71355   5.75137   5.76291
 Alpha virt. eigenvalues --    5.83040   5.97464   6.03284   6.07309   6.09317
 Alpha virt. eigenvalues --    6.45685   6.50515   6.82499   6.85976   6.96141
 Alpha virt. eigenvalues --    7.00648   7.05741   7.10996   7.27077   7.37829
 Alpha virt. eigenvalues --    7.52513   7.55558   7.92593   8.21220  23.88150
 Alpha virt. eigenvalues --   24.15612  24.32990  24.38877  24.47977  24.52640
 Alpha virt. eigenvalues --   24.55485  24.70903  24.74108  24.92817  25.14052
 Alpha virt. eigenvalues --   50.06781  50.12051
          Condensed to atoms (all electrons):
               1          2          3          4          5          6
     1  C    6.985466  -0.196084  -0.093713   0.336738   0.097408   0.024096
     2  C   -0.196084   6.657331  -0.424889   0.021887  -0.157136   0.349206
     3  C   -0.093713  -0.424889   6.790751  -0.015471   0.572634   0.015735
     4  H    0.336738   0.021887  -0.015471   0.474775   0.011380  -0.006262
     5  C    0.097408  -0.157136   0.572634   0.011380   7.958505  -0.024587
     6  H    0.024096   0.349206   0.015735  -0.006262  -0.024587   0.469768
     7  C    0.160162  -0.102848  -1.322507  -0.033378  -2.227392   0.029683
     8  H   -0.000220   0.017191  -0.011993  -0.000091   0.408808  -0.006060
     9  C    0.107997   0.542339  -1.129885   0.042344  -1.551507  -0.026611
    10  H    0.022324   0.002554   0.397991  -0.005836  -0.012325  -0.000085
    11  C   -1.879396   0.711395   1.622800   0.014729  -1.286692   0.000687
    12  C    0.617409  -0.805834  -0.350237  -0.000233   2.737444   0.010344
    13  C    0.132336  -0.266755   0.372105  -0.000634  -0.872345  -0.000597
    14  H    0.000784   0.013708  -0.000430  -0.000002   0.040913  -0.000004
    15  C   -0.074402  -0.049961  -0.387256   0.000222   0.384571   0.000355
    16  H   -0.001222   0.001933   0.000338   0.000000   0.018818  -0.000000
    17  H    0.047897  -0.003762   0.092157  -0.000020   0.001361  -0.000002
    18  H   -0.001212  -0.002020   0.014490  -0.000000  -0.016760  -0.000000
    19  C   -0.017344   0.004274   0.079328   0.000022  -0.027841   0.000003
    20  H    0.000278   0.000153  -0.000544   0.000000   0.001770  -0.000000
    21  H   -0.000052   0.000167  -0.006398   0.000000   0.002386  -0.000000
    22  H   -0.000053  -0.000278   0.003467   0.000000  -0.004132  -0.000000
    23  O    0.000338  -0.000062   0.002645  -0.000000  -0.000850   0.000000
    24  O   -0.000180   0.000009  -0.000659  -0.000000   0.000051   0.000000
    25  H    0.000013  -0.000001   0.000161   0.000000  -0.000007   0.000000
               7          8          9         10         11         12
     1  C    0.160162  -0.000220   0.107997   0.022324  -1.879396   0.617409
     2  C   -0.102848   0.017191   0.542339   0.002554   0.711395  -0.805834
     3  C   -1.322507  -0.011993  -1.129885   0.397991   1.622800  -0.350237
     4  H   -0.033378  -0.000091   0.042344  -0.005836   0.014729  -0.000233
     5  C   -2.227392   0.408808  -1.551507  -0.012325  -1.286692   2.737444
     6  H    0.029683  -0.006060  -0.026611  -0.000085   0.000687   0.010344
     7  C   15.769584  -0.038633  -2.866774  -0.039917  -0.805135  -2.614503
     8  H   -0.038633   0.472947  -0.061965   0.000033   0.006859   0.035064
     9  C   -2.866774  -0.061965  19.616963  -0.043532  -7.395354  -1.913461
    10  H   -0.039917   0.000033  -0.043532   0.460645   0.035048   0.006223
    11  C   -0.805135   0.006859  -7.395354   0.035048  19.219980  -2.771459
    12  C   -2.614503   0.035064  -1.913461   0.006223  -2.771459  12.058733
    13  C   -0.199510   0.010469   1.218184  -0.002750   0.198342  -2.368731
    14  H   -0.008251   0.002046  -0.065562   0.000008  -0.013634   0.373490
    15  C    0.065144   0.002686  -0.727380   0.003624  -1.187123   1.060282
    16  H    0.025030  -0.000028  -0.036797  -0.000002   0.015399   0.024546
    17  H   -0.098176   0.000008   0.059086   0.001678   0.285068  -0.006195
    18  H   -0.020851  -0.000004  -0.076765  -0.000056   0.106988  -0.074162
    19  C   -0.142663  -0.000008  -0.195800   0.000953   0.261115  -0.203598
    20  H    0.005061   0.000000   0.006771   0.000001   0.024212   0.066591
    21  H    0.009321   0.000000   0.060859   0.000007  -0.038357   0.010201
    22  H   -0.003768  -0.000000  -0.003641  -0.000008  -0.001258  -0.058904
    23  O   -0.000345  -0.000000   0.031731  -0.000011  -0.036159  -0.004590
    24  O   -0.000904  -0.000000  -0.012502  -0.000000  -0.025427   0.000128
    25  H   -0.000139  -0.000000   0.001207  -0.000000   0.001056  -0.000248
              13         14         15         16         17         18
     1  C    0.132336   0.000784  -0.074402  -0.001222   0.047897  -0.001212
     2  C   -0.266755   0.013708  -0.049961   0.001933  -0.003762  -0.002020
     3  C    0.372105  -0.000430  -0.387256   0.000338   0.092157   0.014490
     4  H   -0.000634  -0.000002   0.000222   0.000000  -0.000020  -0.000000
     5  C   -0.872345   0.040913   0.384571   0.018818   0.001361  -0.016760
     6  H   -0.000597  -0.000004   0.000355  -0.000000  -0.000002  -0.000000
     7  C   -0.199510  -0.008251   0.065144   0.025030  -0.098176  -0.020851
     8  H    0.010469   0.002046   0.002686  -0.000028   0.000008  -0.000004
     9  C    1.218184  -0.065562  -0.727380  -0.036797   0.059086  -0.076765
    10  H   -0.002750   0.000008   0.003624  -0.000002   0.001678  -0.000056
    11  C    0.198342  -0.013634  -1.187123   0.015399   0.285068   0.106988
    12  C   -2.368731   0.373490   1.060282   0.024546  -0.006195  -0.074162
    13  C    9.326716   0.033053  -1.685423   0.314139   0.039456  -0.059067
    14  H    0.033053   0.469153  -0.002154  -0.007344   0.000020  -0.000425
    15  C   -1.685423  -0.002154   7.983215   0.005209  -0.071200   0.501929
    16  H    0.314139  -0.007344   0.005209   0.466357  -0.000120  -0.001439
    17  H    0.039456   0.000020  -0.071200  -0.000120   0.451142  -0.006785
    18  H   -0.059067  -0.000425   0.501929  -0.001439  -0.006785   0.474192
    19  C    0.345319   0.000601  -0.269475  -0.001781  -0.000842  -0.046780
    20  H   -0.048497  -0.000009  -0.039242   0.003052  -0.000038  -0.007566
    21  H   -0.017731   0.000028  -0.071154   0.000242   0.007142  -0.010938
    22  H    0.024702  -0.000081   0.005821  -0.001577   0.000277   0.005749
    23  O   -0.010425  -0.000009   0.104713  -0.000100  -0.003007   0.007658
    24  O    0.014739   0.000000  -0.018730   0.000016  -0.000286  -0.002048
    25  H   -0.000334  -0.000000   0.002723  -0.000000   0.000037  -0.000010
              19         20         21         22         23         24
     1  C   -0.017344   0.000278  -0.000052  -0.000053   0.000338  -0.000180
     2  C    0.004274   0.000153   0.000167  -0.000278  -0.000062   0.000009
     3  C    0.079328  -0.000544  -0.006398   0.003467   0.002645  -0.000659
     4  H    0.000022   0.000000   0.000000   0.000000  -0.000000  -0.000000
     5  C   -0.027841   0.001770   0.002386  -0.004132  -0.000850   0.000051
     6  H    0.000003  -0.000000  -0.000000  -0.000000   0.000000   0.000000
     7  C   -0.142663   0.005061   0.009321  -0.003768  -0.000345  -0.000904
     8  H   -0.000008   0.000000   0.000000  -0.000000  -0.000000  -0.000000
     9  C   -0.195800   0.006771   0.060859  -0.003641   0.031731  -0.012502
    10  H    0.000953   0.000001   0.000007  -0.000008  -0.000011  -0.000000
    11  C    0.261115   0.024212  -0.038357  -0.001258  -0.036159  -0.025427
    12  C   -0.203598   0.066591   0.010201  -0.058904  -0.004590   0.000128
    13  C    0.345319  -0.048497  -0.017731   0.024702  -0.010425   0.014739
    14  H    0.000601  -0.000009   0.000028  -0.000081  -0.000009   0.000000
    15  C   -0.269475  -0.039242  -0.071154   0.005821   0.104713  -0.018730
    16  H   -0.001781   0.003052   0.000242  -0.001577  -0.000100   0.000016
    17  H   -0.000842  -0.000038   0.007142   0.000277  -0.003007  -0.000286
    18  H   -0.046780  -0.007566  -0.010938   0.005749   0.007658  -0.002048
    19  C    6.099061   0.354600   0.189086   0.418328  -0.134978   0.133530
    20  H    0.354600   0.527560  -0.015166  -0.033165   0.004311  -0.000358
    21  H    0.189086  -0.015166   0.450677   0.003863  -0.168454  -0.013629
    22  H    0.418328  -0.033165   0.003863   0.496342  -0.009837  -0.005333
    23  O   -0.134978   0.004311  -0.168454  -0.009837   8.890317  -0.118153
    24  O    0.133530  -0.000358  -0.013629  -0.005333  -0.118153   8.152304
    25  H   -0.009217  -0.000041   0.004752   0.000486  -0.030013   0.221474
              25
     1  C    0.000013
     2  C   -0.000001
     3  C    0.000161
     4  H    0.000000
     5  C   -0.000007
     6  H    0.000000
     7  C   -0.000139
     8  H   -0.000000
     9  C    0.001207
    10  H   -0.000000
    11  C    0.001056
    12  C   -0.000248
    13  C   -0.000334
    14  H   -0.000000
    15  C    0.002723
    16  H   -0.000000
    17  H    0.000037
    18  H   -0.000010
    19  C   -0.009217
    20  H   -0.000041
    21  H    0.004752
    22  H    0.000486
    23  O   -0.030013
    24  O    0.221474
    25  H    0.559804
 Mulliken charges:
               1
     1  C   -0.269369
     2  C   -0.312517
     3  C   -0.220620
     4  H    0.159830
     5  C   -0.054475
     6  H    0.164332
     7  C    0.461709
     8  H    0.162889
     9  C    0.420056
    10  H    0.173434
    11  C   -1.063686
    12  C    0.171698
    13  C   -0.496762
    14  H    0.164099
    15  C    0.463006
    16  H    0.175332
    17  H    0.205105
    18  H    0.215881
    19  C   -0.835892
    20  H    0.150264
    21  H    0.603150
    22  H    0.163002
    23  O   -0.524720
    24  O   -0.324040
    25  H    0.248295
 Sum of Mulliken charges =  -0.00000
 Mulliken charges with hydrogens summed into heavy atoms:
               1
     1  C   -0.109539
     2  C   -0.148184
     3  C   -0.047186
     5  C    0.108415
     7  C    0.461709
     9  C    0.420056
    11  C   -0.858581
    12  C    0.335797
    13  C   -0.321430
    15  C    0.678887
    19  C    0.080524
    23  O   -0.524720
    24  O   -0.075746
 Electronic spatial extent (au):  <R**2>=           3544.8112
 Charge=             -0.0000 electrons
 Dipole moment (field-independent basis, Debye):
    X=              8.6080    Y=              1.8070    Z=             -0.6999  Tot=              8.8234
 Quadrupole moment (field-independent basis, Debye-Ang):
   XX=            -90.4347   YY=            -69.8405   ZZ=            -80.3363
   XY=             -9.8179   XZ=              7.3455   YZ=              1.3350
 Traceless Quadrupole moment (field-independent basis, Debye-Ang):
   XX=            -10.2309   YY=             10.3633   ZZ=             -0.1324
   XY=             -9.8179   XZ=              7.3455   YZ=              1.3350
 Octapole moment (field-independent basis, Debye-Ang**2):
  XXX=            127.4973  YYY=             -1.8144  ZZZ=              1.5120  XYY=             14.7900
  XXY=             27.4849  XXZ=            -49.2726  XZZ=            -26.3818  YZZ=             -2.5028
  YYZ=             -0.1602  XYZ=             -9.7325
 Hexadecapole moment (field-independent basis, Debye-Ang**3):
 XXXX=          -3695.4609 YYYY=           -772.8017 ZZZZ=           -116.2757 XXXY=           -135.6184
 XXXZ=            291.9676 YYYX=             -7.9642 YYYZ=              0.3738 ZZZX=              5.2280
 ZZZY=              1.7769 XXYY=           -741.0904 XXZZ=           -637.7463 YYZZ=           -176.7277
 XXYZ=             46.4432 YYXZ=              2.7868 ZZXY=             16.9797
 N-N= 7.146409073082D+02 E-N=-2.772722064063D+03  KE= 5.742320437087D+02
 Calling FoFJK, ICntrl=      2127 FMM=F ISym2X=0 I1Cent= 0 IOpClX= 0 NMat=1 NMatS=1 NMatT=0.
 ***** Axes restored to original set *****
 -------------------------------------------------------------------
 Center     Atomic                   Forces (Hartrees/Bohr)
 Number     Number              X              Y              Z
 -------------------------------------------------------------------
      1        6           0.012161579    0.011236638    0.010058224
      2        6           0.004683010   -0.009385043   -0.009068824
      3        6          -0.025933011    0.006376668    0.005362666
      4        1           0.004087895   -0.002148042   -0.001803949
      5        6          -0.011297788    0.000938922    0.004907118
      6        1           0.003975023    0.001105784    0.000181775
      7        6           0.010929033   -0.030653259   -0.032778730
      8        1           0.002719241    0.003168379    0.002549939
      9        6           0.066718951    0.040618406   -0.001721984
     10        1           0.000544949   -0.003329710   -0.003182598
     11        6          -0.047753292   -0.099209110    0.030884099
     12        6          -0.025634202    0.017730168    0.012455200
     13        6           0.020523116    0.004003618    0.012865166
     14        1          -0.002920738    0.003758981    0.003076161
     15        6          -0.030086765    0.026905879   -0.029283755
     16        1          -0.000895707    0.001418027    0.003272958
     17        1           0.004098886    0.023401587   -0.011819526
     18        1           0.002054812    0.003244701    0.006923573
     19        6          -0.017390118   -0.046756711   -0.061182720
     20        1          -0.001850483    0.000183176    0.000706728
     21        1          -0.014005522   -0.037165190   -0.015962569
     22        1          -0.000554950    0.000644045    0.000358161
     23        8           0.054146404    0.095254440    0.083437059
     24        8          -0.005091870   -0.004526911   -0.021593536
     25        1          -0.003228452   -0.006815442    0.011359363
 -------------------------------------------------------------------
 Cartesian Forces:  Max     0.099209110 RMS     0.027233962

 GradGradGradGradGradGradGradGradGradGradGradGradGradGradGradGradGradGrad
 Berny optimization.
 FormGI is forming the generalized inverse of G from B-inverse, IUseBI=4.
 Internal  Forces:  Max     0.118898546 RMS     0.015459290
 Search for a local minimum.
 Step number   1 out of a maximum of  150
 All quantities printed in internal units (Hartrees-Bohrs-Radians)
 Mixed Optimization -- RFO/linear search
 Second derivative matrix not updated -- first step.
 ITU=  0
     Eigenvalues ---    0.00230   0.00230   0.00230   0.00366   0.00549
     Eigenvalues ---    0.01149   0.01365   0.01613   0.01777   0.01820
     Eigenvalues ---    0.02116   0.02157   0.02159   0.02161   0.02179
     Eigenvalues ---    0.02181   0.02183   0.02328   0.04157   0.04758
     Eigenvalues ---    0.05168   0.05295   0.06463   0.10344   0.11151
     Eigenvalues ---    0.13711   0.15936   0.15993   0.15998   0.15999
     Eigenvalues ---    0.15999   0.16000   0.16000   0.16000   0.16000
     Eigenvalues ---    0.16262   0.19094   0.21999   0.22096   0.22689
     Eigenvalues ---    0.23978   0.24629   0.25000   0.27548   0.28371
     Eigenvalues ---    0.29560   0.30044   0.32915   0.34436   0.34454
     Eigenvalues ---    0.34457   0.34478   0.35078   0.35101   0.35102
     Eigenvalues ---    0.35108   0.35130   0.35135   0.35712   0.40767
     Eigenvalues ---    0.42216   0.45517   0.46461   0.46541   0.46797
     Eigenvalues ---    0.52375   0.577181000.000001000.000001000.00000
     Eigenvalues --- 1000.000001000.000001000.000001000.000001000.00000
     Eigenvalues --- 1000.000001000.000001000.000001000.000001000.00000
     Eigenvalues --- 1000.000001000.000001000.000001000.000001000.00000
     Eigenvalues --- 1000.000001000.000001000.000001000.000001000.00000
     Eigenvalues --- 1000.000001000.000001000.000001000.000001000.00000
     Eigenvalues --- 1000.000001000.000001000.000001000.000001000.00000
     Eigenvalues --- 1000.000001000.000001000.000001000.000001000.00000
     Eigenvalues --- 1000.000001000.000001000.000001000.000001000.00000
     Eigenvalues --- 1000.000001000.000001000.000001000.000001000.00000
     Eigenvalues --- 1000.000001000.000001000.000001000.000001000.00000
     Eigenvalues --- 1000.000001000.000001000.000001000.000001000.00000
     Eigenvalues --- 1000.000001000.000001000.000001000.000001000.00000
 RFO step:  Lambda=-4.61663971D-02 EMin= 2.30000000D-03
 Linear search not attempted -- first point.
 Maximum step size (   0.300) exceeded in Quadratic search.
    -- Step size scaled by   0.897
 Iteration  1 RMS(Cart)=  0.06090377 RMS(Int)=  0.00549283
 Iteration  2 RMS(Cart)=  0.00722100 RMS(Int)=  0.00259419
 Iteration  3 RMS(Cart)=  0.00007583 RMS(Int)=  0.00259383
 Iteration  4 RMS(Cart)=  0.00000002 RMS(Int)=  0.00259383
 Iteration  1 RMS(Cart)=  0.00000000 RMS(Int)=  0.00000000
 Variable       Old X    -DE/DX   Delta X   Delta X   Delta X     New X
                                 (Linear)    (Quad)   (Total)
    R1        2.63174   0.00904   0.00000   0.01459   0.01453   2.64627
    R2        2.63272  -0.01644   0.00000  -0.02932  -0.02925   2.60346
    R3        2.05464  -0.00489   0.00000  -0.01104  -0.01104   2.04360
    R4        2.63294  -0.00823   0.00000  -0.01494  -0.01506   2.61788
    R5        2.05456  -0.00411   0.00000  -0.00927  -0.00927   2.04529
    R6        2.63815   0.01114   0.00000   0.02021   0.02033   2.65848
    R7        2.05510  -0.00438   0.00000  -0.00989  -0.00989   2.04521
    R8        2.63778  -0.00138   0.00000  -0.00183  -0.00189   2.63588
    R9        2.05499  -0.00457   0.00000  -0.01033  -0.01033   2.04467
   R10        2.64330   0.01445   0.00000   0.02634   0.02620   2.66949
   R11        2.81268  -0.02933   0.00000  -0.06559  -0.06715   2.74553
   R12        2.87078  -0.06043   0.00000  -0.15881  -0.15747   2.71331
   R13        2.91571  -0.03053   0.00000  -0.08733  -0.08566   2.83005
   R14        2.06571  -0.00098   0.00000  -0.00224  -0.00224   2.06347
   R15        2.51084   0.01193   0.00000   0.01908   0.01767   2.52851
   R16        2.05511  -0.00402   0.00000  -0.00907  -0.00907   2.04604
   R17        2.86991  -0.01745   0.00000  -0.04319  -0.04318   2.82672
   R18        2.05548  -0.00293   0.00000  -0.00662  -0.00662   2.04886
   R19        2.06531   0.00420   0.00000   0.00963   0.00963   2.07494
   R20        2.91335   0.01139   0.00000   0.03097   0.03097   2.94432
   R21        2.06566  -0.00156   0.00000  -0.00359  -0.00359   2.06207
   R22        2.06854   0.08008   0.00000   0.00000  -0.00000   2.06854
   R23        2.06601   0.00011   0.00000   0.00026   0.00026   2.06627
   R24        2.08342   0.11890   0.00000   0.00000  -0.00000   2.08342
   R25        2.77834  -0.01565   0.00000  -0.03481  -0.03481   2.74354
   R26        1.84242  -0.01343   0.00000  -0.02115  -0.02115   1.82128
    A1        2.09356   0.00111   0.00000   0.00013   0.00021   2.09376
    A2        2.09476   0.00016   0.00000   0.00306   0.00302   2.09778
    A3        2.09480  -0.00127   0.00000  -0.00315  -0.00319   2.09161
    A4        2.09395   0.00459   0.00000   0.01195   0.01184   2.10579
    A5        2.09479  -0.00199   0.00000  -0.00464  -0.00459   2.09020
    A6        2.09444  -0.00260   0.00000  -0.00731  -0.00726   2.08718
    A7        2.09855  -0.00093   0.00000  -0.00329  -0.00306   2.09549
    A8        2.08716   0.00205   0.00000   0.00857   0.00840   2.09556
    A9        2.09741  -0.00110   0.00000  -0.00511  -0.00528   2.09213
   A10        2.09994  -0.00057   0.00000  -0.00198  -0.00212   2.09782
   A11        2.08667   0.00209   0.00000   0.00885   0.00890   2.09557
   A12        2.09652  -0.00151   0.00000  -0.00678  -0.00673   2.08980
   A13        2.08852  -0.00274   0.00000  -0.00787  -0.00735   2.08117
   A14        2.08735   0.00967   0.00000   0.02515   0.02561   2.11296
   A15        2.10730  -0.00693   0.00000  -0.01730  -0.01829   2.08902
   A16        2.09165  -0.00142   0.00000   0.00129   0.00053   2.09218
   A17        2.09511   0.00201   0.00000   0.00635   0.00508   2.10020
   A18        2.09469  -0.00049   0.00000  -0.00677  -0.00488   2.08981
   A19        1.99524   0.02085   0.00000   0.09662   0.08866   2.08390
   A20        1.94620  -0.00080   0.00000   0.07298   0.05409   2.00029
   A21        1.93171   0.00276   0.00000   0.08676   0.06945   2.00116
   A22        2.08267   0.00193   0.00000   0.01847   0.01559   2.09827
   A23        2.09672  -0.00501   0.00000  -0.02661  -0.02540   2.07132
   A24        2.10335   0.00319   0.00000   0.00903   0.01024   2.11359
   A25        2.17485  -0.00569   0.00000  -0.01077  -0.01214   2.16271
   A26        2.08025   0.00501   0.00000   0.01507   0.01554   2.09579
   A27        2.02677   0.00080   0.00000  -0.00297  -0.00242   2.02435
   A28        1.95814  -0.00279   0.00000  -0.00492  -0.00378   1.95435
   A29        1.89138  -0.00567   0.00000  -0.03706  -0.03602   1.85536
   A30        1.91001   0.00968   0.00000   0.04002   0.03803   1.94804
   A31        1.88574   0.00408   0.00000   0.01603   0.01541   1.90115
   A32        1.93247  -0.00230   0.00000   0.00462   0.00416   1.93663
   A33        1.88404  -0.00327   0.00000  -0.02103  -0.02043   1.86361
   A34        1.92648   0.00027   0.00000  -0.00104  -0.00112   1.92536
   A35        1.93480  -0.00554   0.00000  -0.02697  -0.02702   1.90778
   A36        1.92814   0.00115   0.00000   0.00615   0.00619   1.93433
   A37        1.88955   0.00167   0.00000   0.00411   0.00395   1.89349
   A38        1.88959   0.00024   0.00000   0.00694   0.00690   1.89648
   A39        1.89407   0.00239   0.00000   0.01174   0.01175   1.90582
   A40        2.85351   0.02193   0.00000   0.06642   0.06642   2.91993
   A41        2.73300  -0.02091   0.00000  -0.09100  -0.09100   2.64199
   A42        1.73356   0.00401   0.00000   0.01746   0.01746   1.75102
    D1        0.00828  -0.00047   0.00000  -0.00343  -0.00331   0.00497
    D2       -3.13308   0.00006   0.00000   0.00122   0.00120  -3.13188
    D3        3.13793  -0.00000   0.00000   0.00054   0.00058   3.13851
    D4       -0.00342   0.00053   0.00000   0.00518   0.00509   0.00167
    D5       -0.01180  -0.00040   0.00000  -0.00588  -0.00591  -0.01771
    D6        3.11741   0.00116   0.00000   0.01024   0.01005   3.12746
    D7       -3.14145  -0.00087   0.00000  -0.00988  -0.00983   3.13191
    D8       -0.01225   0.00068   0.00000   0.00623   0.00613  -0.00611
    D9        0.00781   0.00006   0.00000  -0.00010  -0.00021   0.00760
   D10        3.13811   0.00107   0.00000   0.00882   0.00853  -3.13655
   D11       -3.13402  -0.00047   0.00000  -0.00474  -0.00471  -3.13873
   D12       -0.00372   0.00054   0.00000   0.00417   0.00403   0.00030
   D13       -0.00074   0.00181   0.00000   0.01893   0.01876   0.01802
   D14        3.07755   0.00352   0.00000   0.03456   0.03388   3.11142
   D15       -3.12987   0.00023   0.00000   0.00262   0.00273  -3.12714
   D16       -0.05158   0.00193   0.00000   0.01825   0.01785  -0.03373
   D17       -0.02028   0.00141   0.00000   0.01327   0.01311  -0.00717
   D18        3.12685   0.00226   0.00000   0.01772   0.01690  -3.13943
   D19        3.13266   0.00037   0.00000   0.00420   0.00431   3.13697
   D20       -0.00339   0.00122   0.00000   0.00865   0.00810   0.00471
   D21        0.01671  -0.00229   0.00000  -0.02249  -0.02221  -0.00551
   D22       -3.06160  -0.00409   0.00000  -0.03860  -0.03760  -3.09920
   D23       -3.13050  -0.00310   0.00000  -0.02686  -0.02581   3.12688
   D24        0.07439  -0.00490   0.00000  -0.04297  -0.04120   0.03319
   D25       -2.99353  -0.00490   0.00000  -0.03941  -0.03760  -3.03112
   D26        0.11640  -0.00092   0.00000  -0.00725  -0.00748   0.10892
   D27        0.15367  -0.00405   0.00000  -0.03494  -0.03382   0.11985
   D28       -3.01959  -0.00007   0.00000  -0.00278  -0.00371  -3.02330
   D29        2.74914   0.00682   0.00000   0.09726   0.10046   2.84960
   D30        0.54156  -0.01346   0.00000  -0.16377  -0.16506   0.37650
   D31       -0.45587   0.00850   0.00000   0.11321   0.11576  -0.34011
   D32       -2.66345  -0.01178   0.00000  -0.14781  -0.14976  -2.81321
   D33        0.59132  -0.00875   0.00000  -0.12621  -0.12925   0.46207
   D34       -1.48924  -0.00842   0.00000  -0.11888  -0.12299  -1.61222
   D35        2.74350  -0.00666   0.00000  -0.09487  -0.09825   2.64525
   D36        2.80639   0.00941   0.00000   0.12545   0.12846   2.93485
   D37        0.72584   0.00974   0.00000   0.13278   0.13472   0.86056
   D38       -1.32461   0.01150   0.00000   0.15680   0.15945  -1.16515
   D39        0.03695   0.00159   0.00000   0.00796   0.00618   0.04313
   D40        3.12132   0.00422   0.00000   0.03692   0.03474  -3.12713
   D41       -3.07285  -0.00226   0.00000  -0.02367  -0.02403  -3.09688
   D42        0.01152   0.00037   0.00000   0.00529   0.00453   0.01605
   D43       -0.41421   0.01002   0.00000   0.09364   0.09091  -0.32330
   D44        1.66965   0.00398   0.00000   0.05525   0.05407   1.72372
   D45       -2.55373   0.00116   0.00000   0.04205   0.04096  -2.51277
   D46        2.78303   0.00733   0.00000   0.06494   0.06286   2.84589
   D47       -1.41630   0.00129   0.00000   0.02655   0.02602  -1.39028
   D48        0.64351  -0.00153   0.00000   0.01335   0.01291   0.65642
   D49        3.08190  -0.00183   0.00000  -0.01569  -0.01602   3.06588
   D50        0.98835  -0.00050   0.00000  -0.00267  -0.00308   0.98527
   D51       -1.11197  -0.00062   0.00000  -0.00377  -0.00414  -1.11611
   D52       -1.03399  -0.00019   0.00000   0.00911   0.00969  -1.02430
   D53       -3.12755   0.00114   0.00000   0.02213   0.02264  -3.10491
   D54        1.05532   0.00101   0.00000   0.02103   0.02158   1.07690
   D55        1.02686   0.00148   0.00000   0.01850   0.01835   1.04521
   D56       -1.06670   0.00281   0.00000   0.03152   0.03130  -1.03540
   D57        3.11617   0.00268   0.00000   0.03042   0.03024  -3.13677
   D58        3.13839  -0.00002   0.00000   0.00443   0.00447  -3.14032
   D59        1.02292   0.00199   0.00000   0.01968   0.01971   1.04263
   D60       -1.02433  -0.00051   0.00000   0.00281   0.00274  -1.02160
   D61       -0.89170   0.00033   0.00000   0.00614   0.00614  -0.88556
   D62        1.58452   0.00137   0.00000   0.02466   0.02466   1.60919
         Item               Value     Threshold  Converged?
 Maximum Force            0.060429     0.002500     NO 
 RMS     Force            0.009065     0.001667     NO 
 Maximum Displacement     0.263575     0.010000     NO 
 RMS     Displacement     0.065106     0.006667     NO 
 Predicted change in Energy=-3.011220D-02
 GradGradGradGradGradGradGradGradGradGradGradGradGradGradGradGradGradGrad

                          Input orientation:                          
 ---------------------------------------------------------------------
 Center     Atomic      Atomic             Coordinates (Angstroms)
 Number     Number       Type             X           Y           Z
 ---------------------------------------------------------------------
      1          6           0       -9.048801    2.613728    3.640039
      2          6           0       -9.372700    1.582233    2.750052
      3          6           0       -7.730674    2.960090    3.841569
      4          1           0       -9.831050    3.145018    4.164731
      5          6           0       -8.378496    0.897811    2.070165
      6          1           0      -10.409820    1.318896    2.587411
      7          6           0       -7.037627    1.224399    2.272692
      8          1           0       -8.639741    0.105515    1.381164
      9          6           0       -6.708652    2.264362    3.170350
     10          1           0       -7.479227    3.765744    4.519083
     11          6           0       -5.335437    2.644472    3.347506
     12          6           0       -5.979916    0.520771    1.567716
     13          6           0       -4.697510    0.758791    1.866218
     14          1           0       -6.252465   -0.195470    0.802870
     15          6           0       -4.251437    1.692017    2.946789
     16          1           0       -3.909715    0.242316    1.329423
     17          1           0       -5.133411    3.205960    4.261972
     18          1           0       -4.007432    1.107654    3.843788
     19          6           0       -2.951196    2.443792    2.532327
     20          1           0       -2.153149    1.730910    2.318684
     21          1           0       -2.628639    3.089648    3.355145
     22          1           0       -3.122355    3.054601    1.641717
     23          8           0       -2.122572    3.798281    4.031339
     24          8           0       -0.934008    4.288995    4.705347
     25          1           0       -0.632137    4.945266    4.067343
 ---------------------------------------------------------------------
                    Distance matrix (angstroms):
                    1          2          3          4          5
     1  C    0.000000
     2  C    1.400347   0.000000
     3  C    1.377693   2.405442   0.000000
     4  H    1.081427   2.157244   2.133122   0.000000
     5  C    2.420369   1.385324   2.794735   3.398097   0.000000
     6  H    2.153367   1.082319   3.382935   2.481458   2.138021
     7  C    2.800838   2.410080   2.440146   3.882242   1.394850
     8  H    3.400145   2.142844   3.876674   4.290227   1.081991
     9  C    2.412252   2.781924   1.406805   3.393187   2.422034
    10  H    2.136216   3.388574   1.082280   2.458035   3.876974
    11  C    3.724995   4.217202   2.465943   4.596623   3.733983
    12  C    4.253592   3.746412   3.766409   5.335016   2.479475
    13  C    5.051828   4.828729   4.236487   6.109868   3.689251
    14  H    4.874487   4.085048   4.623457   5.938624   2.705791
    15  C    4.934049   5.126216   3.809689   5.892934   4.293232
    16  H    6.113325   5.801532   5.319483   7.178221   4.576939
    17  H    4.008468   4.784764   2.642530   4.699040   4.545563
    18  H    5.265469   5.496143   4.158612   6.178057   4.721861
    19  C    6.199732   6.482700   4.982378   7.105551   5.662087
    20  H    7.076394   7.233954   5.910909   8.022328   6.285758
    21  H    6.444078   6.936916   5.126808   7.247981   6.286189
    22  H    6.269802   6.516371   5.107336   7.168010   5.697572
    23  O    7.037678   7.688753   5.673569   7.737259   7.169066
    24  O    8.354116   9.075311   6.979024   8.986563   8.594458
    25  H    8.744077   9.457415   7.374356   9.373920   8.965304
                    6          7          8          9         10
     6  H    0.000000
     7  C    3.388165   0.000000
     8  H    2.461810   2.147905   0.000000
     9  C    3.864242   1.412636   3.404544   0.000000
    10  H    4.278644   3.420485   4.958892   2.160327   0.000000
    11  C    5.299458   2.463591   4.607736   1.435823   2.688062
    12  C    4.615282   1.452871   2.698501   2.477822   4.635553
    13  C    5.784836   2.420364   4.025324   2.830583   4.880309
    14  H    4.770901   2.189266   2.474692   3.444394   5.568340
    15  C    6.180133   2.904467   4.921929   2.532876   4.146213
    16  H    6.707676   3.411462   4.732286   3.913021   5.943895
    17  H    5.848560   3.392618   5.496014   2.135329   2.425349
    18  H    6.527915   3.415267   5.341075   3.014645   4.424345
    19  C    7.543175   4.272382   6.257176   3.815461   5.118381
    20  H    8.271310   4.910885   6.752535   4.665031   6.111416
    21  H    8.016967   4.908160   6.995356   4.166744   5.033892
    22  H    7.550771   4.367736   6.261513   3.977778   5.269468
    23  O    8.769877   5.820264   7.945656   4.911857   5.378913
    24  O   10.153726   7.250085   9.377101   6.308872   6.568743
    25  H   10.532988   7.622068   9.734499   6.701931   6.962613
                   11         12         13         14         15
    11  C    0.000000
    12  C    2.844840   0.000000
    13  C    2.481322   1.338029   0.000000
    14  H    3.921911   1.082716   2.111684   0.000000
    15  C    1.497598   2.502259   1.495837   3.487565   0.000000
    16  H    3.446113   2.102392   1.084212   2.440777   2.198700
    17  H    1.091939   3.896900   3.452287   4.978694   2.190800
    18  H    2.090862   3.068489   2.123369   3.998185   1.098010
    19  C    2.527725   3.715054   2.516454   4.566739   1.558067
    20  H    3.466991   4.083202   2.761071   4.776298   2.190626
    21  H    2.743173   4.585313   3.453987   5.517085   2.180275
    22  H    2.824120   3.819873   2.793252   4.589577   2.198789
    23  O    3.481581   5.629442   4.533934   6.590074   3.185069
    24  O    4.890886   7.036010   5.889563   7.976575   4.565321
    25  H    5.285154   7.377197   6.236889   8.286860   4.993857
                   16         17         18         19         20
    16  H    0.000000
    17  H    4.345165   0.000000
    18  H    2.660900   2.417766   0.000000
    19  C    2.685560   2.886977   2.149612   0.000000
    20  H    2.506007   3.851506   2.480474   1.091203   0.000000
    21  H    3.721828   2.666411   2.463360   1.094624   1.773840
    22  H    2.937076   3.306507   3.069703   1.093420   1.774768
    23  O    4.810313   3.077205   3.290494   2.183643   2.684799
    24  O    6.052050   4.359419   4.506568   3.492255   3.704898
    25  H    6.352674   4.829548   5.115649   3.740546   3.962748
                   21         22         23         24         25
    21  H    0.000000
    22  H    1.783485   0.000000
    23  O    1.102498   2.694980   0.000000
    24  O    2.476541   3.962123   1.451817   0.000000
    25  H    2.817191   3.957203   1.881028   0.963778   0.000000
 Stoichiometry    C11H12O2
 Framework group  C1[X(C11H12O2)]
 Deg. of freedom    69
 Full point group                 C1      NOp   1
 Largest Abelian subgroup         C1      NOp   1
 Largest concise Abelian subgroup C1      NOp   1
                         Standard orientation:                         
 ---------------------------------------------------------------------
 Center     Atomic      Atomic             Coordinates (Angstroms)
 Number     Number       Type             X           Y           Z
 ---------------------------------------------------------------------
      1          6           0        3.141117   -1.795474   -0.019235
      2          6           0        3.879430   -0.605652   -0.032915
      3          6           0        1.764162   -1.750813   -0.013018
      4          1           0        3.648528   -2.750470   -0.021053
      5          6           0        3.239210    0.622859   -0.034394
      6          1           0        4.960957   -0.644645   -0.046896
      7          6           0        1.846043    0.687959   -0.013055
      8          1           0        3.818988    1.536274   -0.049735
      9          6           0        1.099322   -0.511101    0.001161
     10          1           0        1.191837   -2.669380   -0.015685
     11          6           0       -0.335157   -0.457192   -0.029678
     12          6           0        1.155130    1.966027   -0.016894
     13          6           0       -0.173835    2.013654    0.131118
     14          1           0        1.736933    2.870823   -0.139875
     15          6           0       -1.031755    0.809904    0.360217
     16          1           0       -0.688623    2.967714    0.114458
     17          1           0       -0.831766   -1.370999    0.302990
     18          1           0       -1.247523    0.725357    1.433493
     19          6           0       -2.403386    0.957029   -0.364044
     20          1           0       -2.926303    1.846180   -0.008106
     21          1           0       -3.022505    0.080499   -0.148196
     22          1           0       -2.264964    1.041942   -1.445338
     23          8           0       -3.808773   -0.688627   -0.072494
     24          8           0       -5.180412   -1.087644    0.186669
     25          1           0       -5.543774   -1.046313   -0.705030
 ---------------------------------------------------------------------
 Rotational constants (GHZ):           1.7557317           0.3605192           0.3022705
 Standard basis: 6-311+G(2df,2p) (5D, 7F)
 There are   615 symmetry adapted cartesian basis functions of A   symmetry.
 There are   550 symmetry adapted basis functions of A   symmetry.
   550 basis functions,   808 primitive gaussians,   615 cartesian basis functions
    47 alpha electrons       47 beta electrons
       nuclear repulsion energy       720.3603606424 Hartrees.
 NAtoms=   25 NActive=   25 NUniq=   25 SFac= 1.00D+00 NAtFMM=   60 NAOKFM=F Big=F
 Integral buffers will be    131072 words long.
 Raffenetti 2 integral format.
 Two-electron integral symmetry is turned on.
 One-electron integrals computed using PRISM.
 NBasis=   550 RedAO= T EigKep=  1.78D-06  NBF=   550
 NBsUse=   548 1.00D-06 EigRej=  8.15D-07 NBFU=   548
 Initial guess from the checkpoint file:  "/scratch/dinius.ab/QMscratch/Gau-38367.chk"
 B after Tr=    -0.000000   -0.000000    0.000000
         Rot=    0.999998    0.001428    0.000263    0.001299 Ang=   0.22 deg.
 ExpMin= 4.38D-02 ExpMax= 8.59D+03 ExpMxC= 1.30D+03 IAcc=2 IRadAn=         4 AccDes= 0.00D+00
 Harris functional with IExCor= 1009 and IRadAn=       4 diagonalized for initial guess.
 HarFok:  IExCor= 1009 AccDes= 0.00D+00 IRadAn=         4 IDoV= 1 UseB2=F ITyADJ=14
 ICtDFT=  3500011 ScaDFX=  1.000000  1.000000  1.000000  1.000000
 FoFCou: FMM=F IPFlag=           0 FMFlag=      100000 FMFlg1=           0
         NFxFlg=           0 DoJE=T BraDBF=F KetDBF=T FulRan=T
         wScrn=  0.000000 ICntrl=       500 IOpCl=  0 I1Cent=   200000004 NGrid=           0
         NMat0=    1 NMatS0=      1 NMatT0=    0 NMatD0=    1 NMtDS0=    0 NMtDT0=    0
 Petite list used in FoFCou.
 Requested convergence on RMS density matrix=1.00D-08 within 128 cycles.
 Requested convergence on MAX density matrix=1.00D-06.
 Requested convergence on             energy=1.00D-06.
 No special actions if energy rises.
 SCF Done:  E(RM062X) =  -576.461000686     A.U. after   17 cycles
            NFock= 17  Conv=0.59D-08     -V/T= 2.0033
 Calling FoFJK, ICntrl=      2127 FMM=F ISym2X=0 I1Cent= 0 IOpClX= 0 NMat=1 NMatS=1 NMatT=0.
 ***** Axes restored to original set *****
 -------------------------------------------------------------------
 Center     Atomic                   Forces (Hartrees/Bohr)
 Number     Number              X              Y              Z
 -------------------------------------------------------------------
      1        6           0.008314380    0.007608739    0.006244990
      2        6           0.003331451   -0.007219214   -0.006899448
      3        6          -0.018354987    0.002850708    0.003438023
      4        1           0.000384343   -0.000851428   -0.000542204
      5        6          -0.009617175    0.002300049    0.003539535
      6        1           0.000571700    0.000112770    0.000211170
      7        6           0.007372756   -0.016508375   -0.016371181
      8        1           0.001018624    0.000491378    0.000487300
      9        6           0.038790103    0.023483288   -0.004919568
     10        1           0.001200493   -0.000872357   -0.000925489
     11        6          -0.023166703   -0.056364628    0.030204314
     12        6          -0.013530810    0.011043104    0.003541635
     13        6           0.012795345   -0.000431101    0.007476218
     14        1          -0.000777799    0.000622024    0.000285850
     15        6          -0.021310734    0.015141636   -0.018977725
     16        1          -0.000911769   -0.001535501    0.002415472
[...]
 76331,0.05174056,0.00018346,-0.00004938,0.00021804,-0.00010250,-0.0000
 4637,-0.00023572,0.00155531,0.00217130,0.00032135,-0.00004228,-0.00011
 906,0.00006206,0.00023802,-0.00043120,-0.00046598,-0.00000211,0.000042
 74,0.00002171,-0.00154679,-0.00184305,0.00174622,-0.00017572,-0.000100
 86,-0.00000681,0.00060235,-0.00442187,-0.00638237,-0.00055237,0.000173
 77,0.00026669,-0.04504374,-0.08456433,-0.30303458,-0.00102622,0.000697
 33,0.00069074,0.00362596,-0.00022717,0.00250374,-0.00007292,0.00019567
 ,-0.00029515,-0.00318203,-0.00643160,-0.01259377,-0.00022162,0.0002942
 1,-0.00060162,0.04548765,0.09417284,0.31831833,-0.00023998,0.00017412,
 0.00055318,0.00020813,-0.00007220,-0.00005279,-0.00083616,-0.00081934,
 -0.00050568,-0.00009312,0.00005982,-0.00008136,-0.00020781,-0.00001894
 ,-0.00011092,-0.00001498,-0.00001264,-0.00001753,0.00086221,-0.0001347
 8,-0.00022602,-0.00001236,0.00000776,-0.00001422,-0.00101055,0.0028947
 2,0.00342189,-0.00001484,0.00004970,0.00001699,-0.01816303,0.00296846,
 -0.01119020,-0.00059767,-0.00031109,-0.00027229,-0.00023953,0.00079045
 ,0.00038989,-0.00004336,0.00028921,-0.00011321,-0.26080919,0.05521747,
 -0.11925587,0.00085285,-0.00014371,0.00039647,0.00086546,-0.00064409,0
 .00023826,0.27275435,0.00066968,-0.00002792,0.00024367,-0.00035601,-0.
 00025513,-0.00065739,-0.00063702,0.00063002,0.00029543,0.00000965,-0.0
 0004122,0.00007757,-0.00019032,-0.00012081,0.00040150,0.00000629,0.000
 01685,0.00000308,-0.00011113,-0.00095400,-0.00096860,0.00000440,0.0000
 1338,-0.00001514,0.00289563,0.00180775,-0.00062841,0.00001089,0.000010
 31,-0.00001817,0.00106269,0.00039461,0.00488865,-0.00009913,0.00076644
 ,-0.00432228,-0.01913688,0.00490268,-0.00684878,-0.00102321,-0.0000630
 3,-0.00040522,0.05345839,-0.05312698,0.01802652,0.00008299,-0.00035992
 ,0.00220497,-0.00012435,-0.00064393,0.00053140,-0.05578477,0.05516293,
 0.00051609,-0.00021517,-0.00040349,-0.00037617,-0.00004471,-0.00022883
 ,0.00055967,0.00102830,0.00043544,0.00009485,-0.00008311,0.00010560,0.
 00015405,-0.00001140,0.00025341,0.00002003,0.00001834,0.00001971,-0.00
 073173,-0.00038478,-0.00007408,0.00001923,0.00001907,0.00000215,0.0031
 8598,-0.00120117,-0.00275699,0.00001632,-0.00004390,-0.00003599,0.0172
 5895,-0.00359677,0.01463690,0.00197825,0.00084578,-0.00191292,-0.01317
 157,0.00426154,-0.00746307,-0.00053436,0.00001117,-0.00008907,-0.11541
 938,0.02461636,-0.11403666,-0.00027928,-0.00067687,0.00097697,-0.00057
 548,-0.00004984,0.00056911,0.12076077,-0.03028354,0.12474352,-0.000256
 02,0.00068764,0.00126524,0.00059383,-0.00042362,-0.00091202,-0.0004929
 8,0.00159681,-0.00154606,-0.00001299,-0.00024983,0.00012570,-0.0017466
 0,0.00186030,-0.00045340,-0.00006642,-0.00026300,0.00005376,0.00288221
 ,-0.00300534,-0.00313221,-0.00005401,-0.00015125,-0.00004869,0.0005931
 3,-0.00025988,0.00511535,-0.00006314,-0.00001681,0.00022883,-0.0148621
 2,-0.02264827,0.01559719,-0.01908111,-0.02106461,0.00934325,-0.0422700
 2,-0.00379005,-0.01611327,-0.00080235,-0.00017577,0.00001349,-0.062208
 75,0.01581137,0.02940193,0.00392342,0.01074436,-0.00443333,-0.00060762
 ,0.00066467,0.00029664,0.00650823,0.01812720,-0.01234805,0.59511806,0.
 00178846,0.00167738,0.00349865,0.00215835,-0.00186504,-0.00400488,-0.0
 0338940,-0.00016122,0.00033960,0.00003055,0.00002326,0.00004242,-0.006
 42117,0.00043570,0.00047741,-0.00005221,-0.00008952,-0.00008578,0.0129
 6630,-0.00519271,-0.01027836,-0.00005045,-0.00004563,0.00005214,0.0076
 8181,0.00407688,0.00491917,-0.00011698,0.00001890,0.00010361,-0.012101
 05,0.00466216,-0.00151785,-0.03207123,-0.00549737,0.00365341,0.0106907
 5,-0.07824065,-0.05221650,-0.00013649,-0.00216165,0.00161842,0.0275283
 8,-0.04374159,0.10834777,-0.00817808,-0.01945632,0.00878905,0.00041304
 ,-0.00189140,0.00044760,-0.00482611,-0.01241327,0.00853679,-0.04449645
 ,0.47795604,0.00040015,0.00061544,0.00136962,0.00145707,-0.00096826,-0
 .00205249,0.00003750,-0.00106508,0.00042956,0.00002981,0.00008678,-0.0
 0005219,-0.00390766,0.00020248,-0.00031500,0.00002176,0.00002268,-0.00
 005646,0.00834849,-0.00319834,-0.00471213,0.00005622,0.00005175,0.0000
 8763,-0.00181712,0.00037441,0.00244666,0.00002196,0.00002473,-0.000069
 45,0.01413676,0.01233891,-0.01536434,-0.01850419,-0.01013917,0.0012055
 5,0.02162494,0.03410558,-0.02102237,-0.00151792,0.00004084,-0.00010797
 ,0.00746738,0.06039150,-0.12756627,-0.00438069,-0.01140326,0.00217141,
 0.00063904,0.00151225,-0.00078112,0.00395429,0.01281823,-0.01137730,0.
 00032298,0.01007179,0.44068235,-0.00012819,-0.00025475,-0.00048548,-0.
 00020407,0.00026742,0.00052640,0.00024694,-0.00006127,0.00008634,0.000
 00008,0.00001391,-0.00001135,0.00073059,0.00003076,-0.00010599,0.00000
 835,0.00000362,0.00001073,-0.00109389,0.00042923,0.00136779,-0.0000073
 5,-0.00000278,-0.00000726,-0.00027174,-0.00062434,-0.00105775,0.000006
 86,0.00000356,-0.00001508,0.00081985,0.00100421,-0.00067436,0.00231486
 ,-0.00083650,-0.00003620,-0.01121564,-0.00512174,0.00503032,-0.0000540
 6,0.00002589,-0.00008800,0.00465823,-0.00139208,-0.00334440,0.00173329
 ,0.00153132,-0.00081061,0.00011695,-0.00011005,-0.00010213,0.00025610,
 -0.00048244,-0.00004649,-0.28440488,0.01095316,0.11784215,0.29610717,-
 0.00066634,-0.00050435,-0.00096982,-0.00052983,0.00054514,0.00113873,0
 .00088446,0.00010981,-0.00034192,-0.00002368,-0.00004371,0.00001136,0.
 00136040,0.00042293,-0.00019700,-0.00001028,-0.00003991,0.00004878,-0.
 00275196,0.00147741,0.00229995,-0.00001054,-0.00003554,-0.00002410,-0.
 00296685,-0.00030180,-0.00217479,0.00000055,0.00000428,0.00003030,0.00
 331086,-0.00131516,-0.00223364,0.00486634,-0.00281872,0.00163044,-0.02
 657010,-0.01495542,0.00870138,-0.00006821,-0.00007988,-0.00004575,-0.0
 0715467,-0.00455925,0.00337408,-0.00109219,0.00100280,-0.00123766,0.00
 016918,0.00002504,-0.00010183,-0.00020025,0.00090642,0.00030505,0.0133
 3747,-0.02687065,0.01611504,-0.00079041,0.05306385,0.00007611,-0.00052
 713,-0.00099701,-0.00077011,0.00019366,0.00040449,0.00068527,-0.000362
 52,0.00045463,-0.00000442,0.00006705,-0.00000066,0.00107243,0.00025233
 ,0.00004588,0.00003156,0.00000766,0.00005035,-0.00225857,0.00041386,0.
 00073393,-0.00001185,0.00000956,-0.00001930,-0.00075977,-0.00074141,-0
 .00191092,0.00002367,0.00000843,-0.00006524,0.00194361,0.00441965,-0.0
 0215069,0.00235843,-0.00134482,0.00090870,-0.01293183,-0.00561303,0.00
 362603,-0.00017432,-0.00012078,-0.00008966,0.01795906,-0.00689163,-0.0
 0453443,0.00004472,0.00109249,-0.00000159,0.00058577,0.00005754,-0.000
 43491,-0.00027718,-0.00107760,0.00075413,0.11924108,0.02480379,-0.0922
 8614,-0.12649413,-0.00213265,0.10107272,-0.00010806,-0.00055306,-0.000
 99985,-0.00023395,0.00040623,0.00077502,0.00070390,0.00015838,0.000295
 04,0.00004834,-0.00001510,-0.00000606,0.00086943,0.00003212,-0.0003460
 3,0.00006513,0.00000700,0.00003045,-0.00177651,0.00032268,0.00176077,0
 .00002130,0.00002399,0.00004375,-0.00233739,-0.00046555,-0.00252851,0.
 00005383,-0.00001077,-0.00010884,0.00331608,0.00006622,-0.00046501,0.0
 0242704,-0.00196308,0.00011108,-0.01522362,-0.00361427,0.00965707,0.00
 017577,0.00012887,-0.00003697,-0.00710430,-0.01890661,0.00559399,0.001
 77692,0.00397331,-0.00149838,0.00055526,0.00006401,-0.00038073,0.00137
 779,0.00425295,-0.00207064,0.03575182,-0.04053711,-0.05869396,-0.00277
 684,0.00530520,0.00853901,0.05944910,-0.00097112,-0.00136944,-0.002660
 75,-0.00002329,0.00116430,0.00268186,0.00282452,-0.00018006,0.00048703
 ,0.00011210,0.00002867,-0.00009933,0.00223772,-0.00065594,-0.00092894,
 0.00013026,0.00007916,0.00001294,-0.00384705,0.00380727,0.00618251,0.0
 0006385,0.00014088,0.00008384,-0.00612520,-0.00219643,-0.00613265,0.00
 013750,0.00002203,-0.00032240,0.01164479,0.00341877,-0.00241422,0.0096
 3963,0.00294729,-0.00303312,-0.00657463,-0.01987628,0.02162979,0.00093
 878,0.00063304,-0.00006879,-0.02445747,-0.04594720,0.01515026,0.001001
 45,0.00303500,-0.00071728,0.00120115,0.00024242,-0.00103804,0.00186787
 ,0.00573553,-0.00275907,-0.04607739,-0.04114876,-0.13784846,0.00079186
 ,-0.00772679,-0.01311223,0.06269303,0.17410448,-0.00122987,-0.00044910
 ,-0.00082514,0.00065858,0.00088698,0.00187138,0.00161779,-0.00038874,-
 0.00014797,0.00005618,-0.00001046,-0.00010770,0.00120345,-0.00061428,-
 0.00084032,0.00002737,0.00003283,-0.00004016,-0.00072450,0.00129034,0.
 00401553,0.00006083,0.00005232,0.00007568,-0.00507083,-0.00032823,-0.0
 0271251,0.00006953,0.00005258,-0.00014169,0.00867448,0.00329119,-0.005
 54954,0.00423172,-0.00005736,-0.00403813,-0.00673295,-0.01267261,0.011
 97603,0.00036064,0.00029900,-0.00000871,-0.00688978,-0.00964671,-0.000
 16375,0.00072219,0.00245212,-0.00165005,0.00073891,0.00066668,-0.00068
 232,0.00123546,0.00475563,-0.00288983,-0.04946726,-0.10425256,-0.06658
 089,0.00329637,-0.01208223,-0.01447286,0.08019783,0.15607897,0.1321127
 0,0.00013105,0.00007415,0.00018201,0.00004224,-0.00011372,-0.00022046,
 -0.00026051,0.00015171,0.00002689,0.00000613,-0.00001514,0.00001147,-0
 .00038870,0.00011308,-0.00005125,0.00000562,-0.00001529,-0.00000006,0.
 00031539,-0.00030899,-0.00062193,0.00000396,-0.00002203,0.00001293,0.0
 0030819,0.00040345,-0.00001747,0.00000417,-0.00001141,-0.00000894,0.00
 174694,-0.00025367,-0.00015209,0.00057331,-0.00256733,-0.00045561,0.00
 345257,-0.00688014,0.00279387,0.00001216,-0.00030905,0.00009454,0.0023
 4050,-0.00533770,0.00258281,-0.00020414,-0.00100335,0.00031494,-0.0000
 5143,-0.00019910,0.00015392,0.00025766,-0.00070158,0.00051480,-0.20000
 098,0.13037425,-0.06432456,-0.00750879,0.01081826,-0.01116711,-0.00957
 360,0.00085157,-0.00879286,0.20861613,-0.00020815,0.00005614,0.0000384
 3,0.00026120,0.00009126,0.00027324,0.00004459,-0.00008243,-0.00010382,
 0.00001306,0.00000110,-0.00002948,-0.00008226,-0.00020430,-0.00004470,
 0.00000155,0.00000166,-0.00001607,-0.00069608,0.00140058,0.00093309,0.
 00001780,-0.00000229,0.00001944,-0.00048242,-0.00020599,0.00009236,0.0
 0000829,-0.00001173,-0.00001886,0.00156138,-0.00070088,0.00009152,0.00
 403963,0.00076178,-0.00183630,0.00929505,-0.02411165,0.00913570,0.0000
 2516,-0.00027418,0.00018041,-0.00225922,-0.00526861,-0.00058574,-0.000
 78313,-0.00187913,0.00131569,-0.00015935,-0.00016229,0.00014211,-0.000
 17818,0.00025592,-0.00106433,0.12851171,-0.12633711,0.06989169,-0.0032
 2287,0.00192153,-0.00364442,-0.00631741,-0.00331276,-0.00755008,-0.126
 59207,0.15442317,-0.00020737,-0.00005288,-0.00017405,0.00003108,0.0000
 8870,0.00027148,0.00050298,0.00003716,-0.00014915,0.00000156,-0.000000
 98,-0.00001581,0.00016762,-0.00012198,-0.00004989,-0.00000713,0.000002
 46,-0.00000327,-0.00017394,0.00108038,0.00050795,-0.00001562,-0.000001
 72,-0.00001841,0.00002616,-0.00073318,0.00053915,0.00000224,0.00000611
 ,-0.00002054,-0.00186233,-0.00179849,0.00259378,0.00169850,0.00143816,
 0.00039935,0.00628051,-0.01063506,0.00231675,0.00023128,0.00004846,-0.
 00013960,-0.02018086,0.00717955,-0.00512276,-0.00067566,-0.00175771,0.
 00090280,-0.00002544,0.00007230,-0.00002077,0.00194603,0.00448944,-0.0
 0245549,-0.06033199,0.07737998,-0.07399748,0.00746917,-0.01122602,0.00
 506313,-0.01514082,-0.00341104,-0.01146483,0.07842963,-0.06675116,0.07
 777025,0.00009121,0.00018021,0.00031455,-0.00001694,-0.00016727,-0.000
 35730,-0.00035089,0.00001413,-0.00006514,-0.00003338,0.00000069,0.0000
 1731,-0.00038389,0.00007704,0.00018494,-0.00003802,-0.00000667,-0.0000
 0838,0.00071670,-0.00034193,-0.00088515,-0.00001789,-0.00002309,-0.000
 02920,0.00107167,0.00005102,0.00068486,0.00000823,0.00000511,0.0000292
 8,-0.00132407,-0.00010541,0.00029063,-0.00129142,0.00003590,-0.0000576
 1,0.00525987,0.00204404,-0.00554189,-0.00029533,-0.00009138,-0.0000307
 1,0.00234265,0.00559376,-0.00794646,-0.00100765,-0.00195981,0.00038764
 ,0.00002050,0.00024539,-0.00008695,-0.00000088,-0.00033650,0.00040511,
 -0.01745740,-0.05762804,-0.02734359,-0.00182375,0.00357441,0.00236094,
 -0.03738139,-0.03036030,-0.01593353,0.00117882,-0.00184343,0.00126087,
 0.33888699,0.00094412,0.00102896,0.00188813,-0.00042810,-0.00105554,-0
 .00230947,-0.00205303,0.00006687,-0.00021293,-0.00010406,0.00000296,0.
 00009714,-0.00152464,0.00072155,0.00086110,-0.00009891,-0.00007000,0.0
 0001210,0.00187286,-0.00223228,-0.00532283,-0.00006785,-0.00011938,-0.
 00009331,0.00533607,0.00095106,0.00493086,-0.00009229,-0.00003877,0.00
 024336,-0.00801415,-0.00174994,0.00185856,-0.00552933,-0.00242585,0.00
 284830,0.00145161,0.00688186,-0.01990208,-0.00100441,-0.00049244,-0.00
 005220,0.00821177,0.01593360,-0.01823237,-0.00085344,-0.00307616,0.000
 25973,-0.00061347,0.00009064,0.00040644,-0.00054869,-0.00289957,0.0017
 4444,-0.04613712,-0.12471092,-0.05103034,-0.00062735,-0.00041089,0.003
 26570,0.01462919,-0.07326506,-0.01466883,0.00213978,0.00517867,0.00530
 482,-0.02169469,0.24644377,0.00078210,0.00030119,0.00058871,-0.0006368
 1,-0.00057905,-0.00128523,-0.00107588,0.00023246,-0.00006485,-0.000057
 52,0.00000361,0.00007903,-0.00060545,0.00050852,0.00065592,-0.00002433
 ,-0.00002361,0.00003712,0.00005525,-0.00072331,-0.00273830,-0.00004130
 ,-0.00005496,-0.00005822,0.00312271,0.00044031,0.00232377,-0.00008259,
 -0.00003793,0.00013352,-0.00489402,-0.00119959,0.00253669,-0.00178883,
 -0.00086060,0.00304658,0.00055270,0.00451483,-0.01089804,-0.00040098,-
 0.00033156,0.00002611,0.00823146,0.01527122,-0.00461199,-0.00062326,-0
 .00162316,0.00063255,-0.00093165,-0.00065191,0.00073995,-0.00088782,-0
 .00317706,0.00144525,-0.02763204,-0.08445548,-0.03258627,-0.00412695,-
 0.00169570,0.00243812,-0.00438288,-0.03615266,-0.03073079,0.00199611,0
 .00136129,0.00304813,0.10934903,0.07538975,0.09738676,0.00005085,0.000
 13429,0.00028159,-0.00013412,-0.00014772,-0.00026157,-0.00017239,-0.00
 014103,-0.00009593,-0.00003188,0.00002822,0.00000203,-0.00004640,0.000
 07767,0.00017939,-0.00003237,-0.00000888,-0.00000597,0.00006156,0.0001
 2777,-0.00053258,-0.00001718,-0.00001136,-0.00003864,0.00066977,0.0001
 8066,0.00084460,-0.00000492,0.00002785,0.00001277,-0.00093021,0.000327
 63,-0.00008108,0.00061739,0.00054122,0.00036403,0.00197544,-0.00161338
 ,-0.00283027,-0.00004338,-0.00000263,-0.00005377,0.00174362,0.00029052
 ,0.00135186,-0.00017520,-0.00110584,0.00040738,-0.00022945,-0.00011168
 ,0.00016325,-0.00148400,-0.00124324,0.00007862,-0.00114595,0.00556501,
 0.00438104,0.00270592,-0.00041093,0.00030404,-0.02631792,0.02112698,-0
 .00898261,-0.00109509,-0.00088425,0.00053150,-0.25039298,0.06899881,-0
 .08295183,0.49718007,-0.00016096,-0.00010438,-0.00022300,-0.00010991,0
 .00012111,0.00022645,0.00017206,-0.00004583,-0.00010462,-0.00002294,-0
 .00000469,0.00000134,0.00021817,-0.00000374,0.00001258,-0.00000967,0.0
 0000091,0.00000794,-0.00028352,0.00020163,0.00054834,-0.00000287,-0.00
 000646,-0.00000574,-0.00057859,0.00002902,-0.00047029,0.00000537,-0.00
 001503,0.00002005,0.00073921,0.00053571,-0.00058117,0.00075433,0.00022
 668,-0.00025853,0.00017325,0.00009335,0.00073382,-0.00002696,-0.000016
 41,-0.00001871,-0.00057121,-0.00106211,0.00040349,-0.00007179,-0.00001
 362,0.00014257,0.00003014,-0.00012816,0.00009156,-0.00048427,-0.000147
 07,-0.00079917,-0.00265469,0.00009372,-0.00342286,-0.00106357,0.000431
 66,0.00138824,-0.01961124,0.00306103,-0.00687676,-0.00061866,-0.001586
 65,-0.00034570,0.07272049,-0.07524199,0.03939091,0.13506490,0.31887363
 ,-0.00007261,-0.00001120,-0.00007137,-0.00008213,0.00001620,0.00004930
 ,0.00008560,-0.00004193,-0.00010733,-0.00001572,-0.00000327,0.00000552
 ,0.00007841,0.00001877,0.00006933,-0.00000726,0.00000636,0.00000510,-0
 .00007593,0.00013094,0.00013995,0.00000140,0.00000472,-0.00000648,-0.0
 0026441,-0.00006479,-0.00000427,-0.00001762,-0.00000361,0.00003287,0.0
 0023795,-0.00015429,-0.00006674,0.00040435,0.00039562,0.00009770,0.001
 81320,-0.00037357,-0.00016731,-0.00000136,-0.00001298,-0.00000259,-0.0
 0052999,0.00114006,-0.00001470,-0.00004416,-0.00024401,0.00019191,-0.0
 0011187,-0.00005910,0.00006838,0.00028349,-0.00006509,-0.00014793,-0.0
 0388347,0.00360072,-0.00027656,0.00184857,0.00136272,0.00158171,-0.017
 56118,0.00611760,-0.00845661,-0.00114705,-0.00170768,0.00038410,-0.041
 13243,0.02373497,-0.03494743,-0.06568643,-0.20073518,0.16351858,0.0000
 1191,-0.00002100,-0.00003807,0.00002634,0.00001525,0.00002101,0.000031
 05,0.00002089,0.00002493,0.00000695,-0.00000329,-0.00000135,-0.0000138
 1,-0.00002657,-0.00002122,0.00000838,0.00000171,0.00000162,0.00000747,
 0.00003355,0.00008350,0.00000292,0.00000287,0.00000799,-0.00005923,-0.
 00001628,-0.00008811,-0.00000245,-0.00000605,-0.00000445,0.00012670,0.
 00015512,0.00006847,-0.00000985,0.00011240,-0.00004652,0.00040642,-0.0
 0002504,0.00006218,0.00004187,0.00001214,0.00001348,0.00000669,0.00000
 543,0.00023727,-0.00001974,-0.00003121,0.00003389,-0.00003637,-0.00003
 138,-0.00000671,-0.00017534,-0.00035418,-0.00000956,0.00016265,-0.0001
 4531,-0.00025184,-0.00021597,-0.00038087,-0.00037641,-0.00375814,0.001
 17337,0.00067285,0.00008841,-0.00007060,0.00004203,-0.03776078,-0.0141
 9266,0.00705479,-0.22275117,-0.18360706,0.12588064,0.26387509,0.000006
 89,-0.00001364,-0.00001109,0.00004841,0.00000872,0.00001958,-0.0000069
 1,-0.00000811,0.00002850,0.00000760,0.00000228,-0.00000537,-0.00002982
 ,-0.00003528,-0.00003148,0.00000717,0.00000293,-0.00000126,0.00005455,
 0.00000616,0.00004964,0.00000226,0.00000618,0.00000603,-0.00012451,0.0
 0004478,-0.00004704,0.00000103,-0.00000012,-0.00000741,0.00003313,0.00
 003633,-0.00012646,-0.00007470,0.00002798,-0.00019495,-0.00007142,0.00
 031726,0.00045566,0.00000009,0.00000677,0.00000618,0.00007558,-0.00081
 402,0.00048954,0.00002965,0.00003258,-0.00000914,0.00003525,-0.0000184
 0,0.00000780,-0.00014052,0.00045001,-0.00017302,0.00007255,0.00087977,
 0.00041167,-0.00046479,-0.00024881,-0.00041175,-0.00006899,-0.00274113
 ,-0.00026070,0.00002296,0.00004821,-0.00029159,0.03001635,0.01048885,-
 0.00584750,-0.22681057,-0.24529229,0.16694800,0.19737877,0.23681300,0.
 00003909,0.00002662,0.00004839,0.00000221,-0.00003114,-0.00006415,-0.0
 0005002,-0.00001433,0.00003093,0.00000286,0.00000318,-0.00000001,-0.00
 004395,0.00000417,0.00001114,-0.00000060,-0.00000309,-0.00000068,0.000
 03010,0.00000280,-0.00012192,-0.00000363,-0.00000443,-0.00000201,0.000
 14362,0.00005586,0.00012955,0.00000259,0.00000207,-0.00000515,-0.00019
 838,0.00014865,0.00003480,0.00003795,0.00003326,0.00000782,0.00017880,
 -0.00036558,-0.00065382,-0.00001091,-0.00000605,-0.00000519,0.00045071
 ,0.00010559,-0.00000776,-0.00001838,-0.00024619,0.00007266,-0.00004779
 ,-0.00001833,0.00000881,-0.00019163,-0.00026882,-0.00007053,-0.0007036
 4,0.00012910,0.00081163,-0.00007165,-0.00055473,-0.00017041,-0.0027841
 6,0.00227418,0.00145247,-0.00015453,-0.00012233,-0.00016482,-0.0158668
 2,-0.01102105,0.00280291,0.15261857,0.17087443,-0.12187513,-0.13336041
 ,-0.16100383,0.11773047\\-0.00003140,-0.00004151,-0.00001929,0.0000190
 2,-0.00001504,0.00003984,0.00002055,-0.00005308,0.00001496,0.00000560,
 -0.00006139,0.00001668,0.00002438,-0.00002391,-0.00000561,0.00001047,-
 0.00001641,-0.00001685,-0.00000193,0.00000805,0.00001108,-0.00000813,0
 .00000768,-0.00002162,-0.00012134,0.00000809,-0.00006086,0.00000554,-0
 .00005377,0.00002164,0.00014781,-0.00004297,0.00006300,0.00000546,0.00
 002174,-0.00000316,-0.00003135,-0.00000182,-0.00003818,0.00001269,0.00
 004107,-0.00003891,-0.00001565,0.00001073,-0.00003270,0.00003814,-0.00
 000505,-0.00002881,0.00000069,-0.00000671,0.00002491,0.00000537,0.0000
 2723,-0.00001974,0.05428212,0.13028980,0.10633082,0.00004910,-0.000000
 07,-0.00000150,-0.04063993,-0.09989091,-0.08703840,0.00000011,0.000085
 39,0.00001045,-0.01378267,-0.03029231,-0.01922247,-0.00002964,-0.00004
 678,-0.00002230,0.00003498,0.00005195,0.00003700\\\@


 ONE THORN OF EXPERIENCE IS WORTH A WHOLE WILDERNESS OF
 WARNING....  LOWELL - AMONG MY BOOKS
 Job cpu time:       0 days  5 hours 44 minutes 40.9 seconds.
 Elapsed time:       0 days  5 hours 44 minutes 46.4 seconds.
 File lengths (MBytes):  RWF=   1728 Int=      0 D2E=      0 Chk=     48 Scr=     32
 Normal termination of Gaussian 16 at Wed Jan 16 22:38:22 2019.
