 Entering Gaussian System, Link 0=g16
 Input=rxn902.com
 Output=rxn902.log
 Initial command:
 /shared/centos7/gaussian/g16/l1.exe "/scratch/dinius.ab/QMscratch/Gau-26990.inp" -scrdir="/scratch/dinius.ab/QMscratch/"
 Entering Link 1 = /shared/centos7/gaussian/g16/l1.exe PID=     26991.
  
 Copyright (c) 1988,1990,1992,1993,1995,1998,2003,2009,2016,
            Gaussian, Inc.  All Rights Reserved.
  
 This is part of the Gaussian(R) 16 program.  It is based on
 the Gaussian(R) 09 system (copyright 2009, Gaussian, Inc.),
 the Gaussian(R) 03 system (copyright 2003, Gaussian, Inc.),
 the Gaussian(R) 98 system (copyright 1998, Gaussian, Inc.),
 the Gaussian(R) 94 system (copyright 1995, Gaussian, Inc.),
 the Gaussian 92(TM) system (copyright 1992, Gaussian, Inc.),
 the Gaussian 90(TM) system (copyright 1990, Gaussian, Inc.),
 the Gaussian 88(TM) system (copyright 1988, Gaussian, Inc.),
 the Gaussian 86(TM) system (copyright 1986, Carnegie Mellon
 University), and the Gaussian 82(TM) system (copyright 1983,
 Carnegie Mellon University). Gaussian is a federally registered
 trademark of Gaussian, Inc.
  
 This software contains proprietary and confidential information,
 including trade secrets, belonging to Gaussian, Inc.
  
 This software is provided under written license and may be
 used, copied, transmitted, or stored only in accord with that
 written license.
  
 The following legend is applicable only to US Government
 contracts under FAR:
  
                    RESTRICTED RIGHTS LEGEND
  
 Use, reproduction and disclosure by the US Government is
 subject to restrictions as set forth in subparagraphs (a)
 and (c) of the Commercial Computer Software - Restricted
 Rights clause in FAR 52.227-19.
  
 Gaussian, Inc.
 340 Quinnipiac St., Bldg. 40, Wallingford CT 06492
  
  
 ---------------------------------------------------------------
 Warning -- This program may not be used in any manner that
 competes with the business of Gaussian, Inc. or will provide
 assistance to any competitor of Gaussian, Inc.  The licensee
 of this program is prohibited from giving any competitor of
 Gaussian, Inc. access to this program.  By using this program,
 the user acknowledges that Gaussian, Inc. is engaged in the
 business of creating and licensing software in the field of
 computational chemistry and represents and warrants to the
 licensee that it is not a competitor of Gaussian, Inc. and that
 it will not use this program in any manner prohibited above.
 ---------------------------------------------------------------
  

 Cite this work as:
 Gaussian 16, Revision A.03,
 M. J. Frisch, G. W. Trucks, H. B. Schlegel, G. E. Scuseria, 
 M. A. Robb, J. R. Cheeseman, G. Scalmani, V. Barone, 
 G. A. Petersson, H. Nakatsuji, X. Li, M. Caricato, A. V. Marenich, 
 J. Bloino, B. G. Janesko, R. Gomperts, B. Mennucci, H. P. Hratchian, 
 J. V. Ortiz, A. F. Izmaylov, J. L. Sonnenberg, D. Williams-Young, 
 F. Ding, F. Lipparini, F. Egidi, J. Goings, B. Peng, A. Petrone, 
 T. Henderson, D. Ranasinghe, V. G. Zakrzewski, J. Gao, N. Rega, 
 G. Zheng, W. Liang, M. Hada, M. Ehara, K. Toyota, R. Fukuda, 
 J. Hasegawa, M. Ishida, T. Nakajima, Y. Honda, O. Kitao, H. Nakai, 
 T. Vreven, K. Throssell, J. A. Montgomery, Jr., J. E. Peralta, 
 F. Ogliaro, M. J. Bearpark, J. J. Heyd, E. N. Brothers, K. N. Kudin, 
 V. N. Staroverov, T. A. Keith, R. Kobayashi, J. Normand, 
 K. Raghavachari, A. P. Rendell, J. C. Burant, S. S. Iyengar, 
 J. Tomasi, M. Cossi, J. M. Millam, M. Klene, C. Adamo, R. Cammi, 
 J. W. Ochterski, R. L. Martin, K. Morokuma, O. Farkas, 
 J. B. Foresman, and D. J. Fox, Gaussian, Inc., Wallingford CT, 2016.
 
 ******************************************
 Gaussian 16:  EM64L-G16RevA.03 25-Dec-2016
                15-Jan-2019 
 ******************************************
 ----------------------------------------------------------------------
 #m062x/6-311+g(2df,2p) Opt=(ModRedun,Loose,maxcycle=1000) Int(Grid=SG1
 ) freq
 ----------------------------------------------------------------------
 1/6=1000,7=-1,18=120,19=15,26=2,38=1/1,3;
 2/9=110,12=2,17=6,18=5,40=1/2;
 3/5=4,6=6,7=214,11=2,25=1,30=1,71=1,74=-55,75=1/1,2,3;
 4//1;
 5/5=2,38=5/2;
 6/7=2,8=2,9=2,10=2,28=1/1;
 7//1,2,3,16;
 1/6=1000,7=-1,18=20,19=15,26=2/3(2);
 2/9=110/2;
 99//99;
 2/9=110/2;
 3/5=4,6=6,7=214,11=2,25=1,30=1,71=1,74=-55,75=1/1,2,3;
 4/5=5,16=3,69=1/1;
 5/5=2,38=5/2;
 7//1,2,3,16;
 1/6=1000,7=-1,18=20,19=15,26=2/3(-5);
 2/9=110/2;
 6/7=2,8=2,9=2,10=2,19=2,28=1/1;
 99/9=1/99;
 -----
 Title
 -----
 Symbolic Z-matrix:
 Charge =  0 Multiplicity = 2
 C                    -0.02986   15.56905   0.9749 
 C                     1.30894   15.26261   0.7579 
 C                     1.67426   13.97221   0.37213 
 C                     0.705     12.97017   0.19798 
 C                    -1.00482   14.58462   0.80607 
 C                    -0.65917   13.27415   0.41665 
 H                    -2.04763   14.84265   0.98091 
 H                    -0.31917   16.5724   1.27587 
 H                     2.07043   16.0269   0.88876 
 H                     2.72709   13.75337   0.20769 
 C                    -1.61309   12.25147   0.23641 
 C                     1.07009   11.67048  -0.19019 
 C                     0.10597   10.67619  -0.36406 
 H                     2.11577   11.42298  -0.36209 
 C                    -1.2392    10.96365  -0.15169 
 H                     0.40847   9.67685  -0.66758 
 H                    -1.97229   10.17504  -0.2995 
 O                    -2.94193   12.53805   0.4463 
 H                    -3.4727    11.72656   0.35303 
 O                    -4.45764   11.66161   0.31196 
 O                    -4.93394   11.01252  -0.91389 
 H                    -5.32731   11.81017  -1.3191 
 
 The following ModRedundant input section has been read:
 B      11      18 F                                                           
 B      19      20 F                                                           
 

 GradGradGradGradGradGradGradGradGradGradGradGradGradGradGradGradGradGrad
 Berny optimization.
 Initialization pass.
                           ----------------------------
                           !    Initial Parameters    !
                           ! (Angstroms and Degrees)  !
 --------------------------                            --------------------------
 ! Name  Definition              Value          Derivative Info.                !
 --------------------------------------------------------------------------------
 ! R1    R(1,2)                  1.3905         estimate D2E/DX2                !
 ! R2    R(1,5)                  1.3958         estimate D2E/DX2                !
 ! R3    R(1,8)                  1.0867         estimate D2E/DX2                !
 ! R4    R(2,3)                  1.3955         estimate D2E/DX2                !
 ! R5    R(2,9)                  1.0868         estimate D2E/DX2                !
 ! R6    R(3,4)                  1.4049         estimate D2E/DX2                !
 ! R7    R(3,10)                 1.0878         estimate D2E/DX2                !
 ! R8    R(4,6)                  1.4146         estimate D2E/DX2                !
 ! R9    R(4,12)                 1.4047         estimate D2E/DX2                !
 ! R10   R(5,6)                  1.4101         estimate D2E/DX2                !
 ! R11   R(5,7)                  1.0884         estimate D2E/DX2                !
 ! R12   R(6,11)                 1.4101         estimate D2E/DX2                !
 ! R13   R(11,15)                1.396          estimate D2E/DX2                !
 ! R14   R(11,18)                1.3755         Frozen                          !
 ! R15   R(12,13)                1.3958         estimate D2E/DX2                !
 ! R16   R(12,14)                1.0882         estimate D2E/DX2                !
 ! R17   R(13,15)                1.3918         estimate D2E/DX2                !
 ! R18   R(13,16)                1.0873         estimate D2E/DX2                !
 ! R19   R(15,17)                1.0868         estimate D2E/DX2                !
 ! R20   R(18,19)                0.9741         estimate D2E/DX2                !
 ! R21   R(19,20)                0.9879         Frozen                          !
 ! R22   R(20,21)                1.4666         estimate D2E/DX2                !
 ! R23   R(21,22)                0.9773         estimate D2E/DX2                !
 ! A1    A(2,1,5)              119.884          estimate D2E/DX2                !
 ! A2    A(2,1,8)              120.2005         estimate D2E/DX2                !
 ! A3    A(5,1,8)              119.9155         estimate D2E/DX2                !
 ! A4    A(1,2,3)              119.9333         estimate D2E/DX2                !
 ! A5    A(1,2,9)              120.057          estimate D2E/DX2                !
 ! A6    A(3,2,9)              120.0097         estimate D2E/DX2                !
 ! A7    A(2,3,4)              120.8753         estimate D2E/DX2                !
 ! A8    A(2,3,10)             118.7618         estimate D2E/DX2                !
 ! A9    A(4,3,10)             120.3629         estimate D2E/DX2                !
 ! A10   A(3,4,6)              119.5289         estimate D2E/DX2                !
 ! A11   A(3,4,12)             120.9877         estimate D2E/DX2                !
 ! A12   A(6,4,12)             119.4835         estimate D2E/DX2                !
 ! A13   A(1,5,6)              121.174          estimate D2E/DX2                !
 ! A14   A(1,5,7)              118.8567         estimate D2E/DX2                !
 ! A15   A(6,5,7)              119.9693         estimate D2E/DX2                !
 ! A16   A(4,6,5)              118.6045         estimate D2E/DX2                !
 ! A17   A(4,6,11)             118.4743         estimate D2E/DX2                !
 ! A18   A(5,6,11)             122.9211         estimate D2E/DX2                !
 ! A19   A(6,11,15)            121.5606         estimate D2E/DX2                !
 ! A20   A(6,11,18)            118.8777         estimate D2E/DX2                !
 ! A21   A(15,11,18)           119.5615         estimate D2E/DX2                !
 ! A22   A(4,12,13)            120.9291         estimate D2E/DX2                !
 ! A23   A(4,12,14)            120.2535         estimate D2E/DX2                !
 ! A24   A(13,12,14)           118.8173         estimate D2E/DX2                !
 ! A25   A(12,13,15)           120.0943         estimate D2E/DX2                !
 ! A26   A(12,13,16)           119.8207         estimate D2E/DX2                !
 ! A27   A(15,13,16)           120.0849         estimate D2E/DX2                !
 ! A28   A(11,15,13)           119.458          estimate D2E/DX2                !
 ! A29   A(11,15,17)           121.7709         estimate D2E/DX2                !
 ! A30   A(13,15,17)           118.7701         estimate D2E/DX2                !
 ! A31   A(11,18,19)           109.7679         estimate D2E/DX2                !
 ! A32   A(18,19,20)           127.0105         estimate D2E/DX2                !
 ! A33   A(19,20,21)           112.807          estimate D2E/DX2                !
 ! A34   A(20,21,22)            96.6643         estimate D2E/DX2                !
 ! D1    D(5,1,2,3)             -0.0037         estimate D2E/DX2                !
 ! D2    D(5,1,2,9)           -179.986          estimate D2E/DX2                !
 ! D3    D(8,1,2,3)            179.9714         estimate D2E/DX2                !
 ! D4    D(8,1,2,9)             -0.0109         estimate D2E/DX2                !
 ! D5    D(2,1,5,6)             -0.0048         estimate D2E/DX2                !
 ! D6    D(2,1,5,7)            179.9664         estimate D2E/DX2                !
 ! D7    D(8,1,5,6)           -179.98           estimate D2E/DX2                !
 ! D8    D(8,1,5,7)             -0.0087         estimate D2E/DX2                !
 ! D9    D(1,2,3,4)              0.003          estimate D2E/DX2                !
 ! D10   D(1,2,3,10)          -179.9875         estimate D2E/DX2                !
 ! D11   D(9,2,3,4)            179.9852         estimate D2E/DX2                !
 ! D12   D(9,2,3,10)            -0.0052         estimate D2E/DX2                !
 ! D13   D(2,3,4,6)              0.0062         estimate D2E/DX2                !
 ! D14   D(2,3,4,12)          -179.9958         estimate D2E/DX2                !
 ! D15   D(10,3,4,6)           179.9965         estimate D2E/DX2                !
 ! D16   D(10,3,4,12)           -0.0055         estimate D2E/DX2                !
 ! D17   D(3,4,6,5)             -0.0143         estimate D2E/DX2                !
 ! D18   D(3,4,6,11)          -179.9543         estimate D2E/DX2                !
 ! D19   D(12,4,6,5)           179.9877         estimate D2E/DX2                !
 ! D20   D(12,4,6,11)            0.0477         estimate D2E/DX2                !
 ! D21   D(3,4,12,13)         -179.9401         estimate D2E/DX2                !
 ! D22   D(3,4,12,14)           -0.0191         estimate D2E/DX2                !
 ! D23   D(6,4,12,13)            0.0578         estimate D2E/DX2                !
 ! D24   D(6,4,12,14)          179.9788         estimate D2E/DX2                !
 ! D25   D(1,5,6,4)              0.0138         estimate D2E/DX2                !
 ! D26   D(1,5,6,11)           179.951          estimate D2E/DX2                !
 ! D27   D(7,5,6,4)           -179.9571         estimate D2E/DX2                !
 ! D28   D(7,5,6,11)            -0.02           estimate D2E/DX2                !
 ! D29   D(4,6,11,15)           -0.1531         estimate D2E/DX2                !
 ! D30   D(4,6,11,18)         -179.975          estimate D2E/DX2                !
 ! D31   D(5,6,11,15)          179.9096         estimate D2E/DX2                !
 ! D32   D(5,6,11,18)            0.0878         estimate D2E/DX2                !
 ! D33   D(6,11,15,13)           0.1512         estimate D2E/DX2                !
 ! D34   D(6,11,15,17)        -179.4898         estimate D2E/DX2                !
 ! D35   D(18,11,15,13)        179.9718         estimate D2E/DX2                !
 ! D36   D(18,11,15,17)          0.3309         estimate D2E/DX2                !
 ! D37   D(6,11,18,19)        -175.6508         estimate D2E/DX2                !
 ! D38   D(15,11,18,19)          4.5237         estimate D2E/DX2                !
 ! D39   D(4,12,13,15)          -0.0617         estimate D2E/DX2                !
 ! D40   D(4,12,13,16)         179.8309         estimate D2E/DX2                !
 ! D41   D(14,12,13,15)       -179.9838         estimate D2E/DX2                !
 ! D42   D(14,12,13,16)         -0.0912         estimate D2E/DX2                !
 ! D43   D(12,13,15,11)         -0.0419         estimate D2E/DX2                !
 ! D44   D(12,13,15,17)        179.6098         estimate D2E/DX2                !
 ! D45   D(16,13,15,11)       -179.9342         estimate D2E/DX2                !
 ! D46   D(16,13,15,17)         -0.2825         estimate D2E/DX2                !
 ! D47   D(11,18,19,20)       -169.7693         estimate D2E/DX2                !
 ! D48   D(18,19,20,21)        122.2084         estimate D2E/DX2                !
 ! D49   D(19,20,21,22)       -110.4481         estimate D2E/DX2                !
 --------------------------------------------------------------------------------
 Trust Radius=3.00D-01 FncErr=1.00D-05 GrdErr=1.00D-04 EigMax=2.50D+02 EigMin=1.00D-04
 Number of steps in this run=    132 maximum allowed number of steps=    132.
 GradGradGradGradGradGradGradGradGradGradGradGradGradGradGradGradGradGrad

                          Input orientation:                          
 ---------------------------------------------------------------------
 Center     Atomic      Atomic             Coordinates (Angstroms)
 Number     Number       Type             X           Y           Z
 ---------------------------------------------------------------------
      1          6           0       -0.029860   15.569050    0.974900
      2          6           0        1.308940   15.262610    0.757900
      3          6           0        1.674260   13.972210    0.372130
      4          6           0        0.705000   12.970170    0.197980
      5          6           0       -1.004820   14.584620    0.806070
      6          6           0       -0.659170   13.274150    0.416650
      7          1           0       -2.047630   14.842650    0.980910
      8          1           0       -0.319170   16.572400    1.275870
      9          1           0        2.070430   16.026900    0.888760
     10          1           0        2.727090   13.753370    0.207690
     11          6           0       -1.613090   12.251470    0.236410
     12          6           0        1.070090   11.670480   -0.190190
     13          6           0        0.105970   10.676190   -0.364060
     14          1           0        2.115770   11.422980   -0.362090
     15          6           0       -1.239200   10.963650   -0.151690
     16          1           0        0.408470    9.676850   -0.667580
     17          1           0       -1.972290   10.175040   -0.299500
     18          8           0       -2.941930   12.538050    0.446300
     19          1           0       -3.472700   11.726560    0.353030
     20          8           0       -4.457640   11.661610    0.311960
     21          8           0       -4.933940   11.012520   -0.913890
     22          1           0       -5.327310   11.810170   -1.319100
 ---------------------------------------------------------------------
                    Distance matrix (angstroms):
                    1          2          3          4          5
     1  C    0.000000
     2  C    1.390460   0.000000
     3  C    2.411899   1.395496   0.000000
     4  C    2.810303   2.435885   1.404947   0.000000
     5  C    1.395763   2.411530   2.782233   2.428931   0.000000
     6  C    2.444226   2.818489   2.436014   1.414631   1.410125
     7  H    2.144549   3.390083   3.870497   3.419961   1.088394
     8  H    1.086736   2.152809   3.398749   3.897029   2.154553
     9  H    2.151340   1.086798   2.155367   3.418358   3.397672
    10  H    3.389112   2.142822   1.087834   2.168489   3.869908
    11  C    3.749443   4.228141   3.712955   2.427251   2.477518
    12  C    4.214994   3.722811   2.445237   1.404692   3.713489
    13  C    5.074578   4.872492   3.723608   2.436610   4.228343
    14  H    4.856044   4.080210   2.689346   2.167429   4.593326
    15  C    4.892997   5.079511   4.220672   2.815725   3.752821
    16  H    6.132528   5.834685   4.597101   3.418052   5.315566
    17  H    5.873029   6.145562   5.307251   3.902322   4.647868
    18  O    4.236335   5.058677   4.834411   3.680827   2.840824
    19  H    5.196595   5.960843   5.615559   4.361626   3.803181
    20  O    5.942458   6.813186   6.553067   5.327117   4.550835
    21  O    6.955537   7.735095   7.354041   6.071762   5.581769
    22  H    6.888729   7.763574   7.520416   6.327392   5.558583
                    6          7          8          9         10
     6  C    0.000000
     7  H    2.169425   0.000000
     8  H    3.425246   2.463049   0.000000
     9  H    3.905283   4.285949   2.481454   0.000000
    10  H    3.426379   4.958059   4.285748   2.462518   0.000000
    11  C    1.410080   2.730809   4.628730   5.314861   4.592787
    12  C    2.435231   4.599382   5.301716   4.598174   2.691169
    13  C    2.818571   4.879173   6.134770   5.835988   4.082426
    14  H    3.425428   5.552629   5.926919   4.771034   2.475698
    15  C    2.449052   4.121041   5.860244   6.137808   4.862422
    16  H    3.905890   5.952767   7.201046   6.745920   4.770756
    17  H    3.441168   4.840631   6.792703   7.211090   5.928394
    18  O    2.398690   2.529182   4.882933   6.123038   5.802734
    19  H    3.211703   3.483543   5.854789   7.036066   6.524299
    20  O    4.127907   4.046561   6.493991   7.874272   7.483761
    21  O    5.015871   5.156641   7.550061   8.800838   8.213500
    22  H    5.191107   5.024170   7.382017   8.796705   8.424991
                   11         12         13         14         15
    11  C    0.000000
    12  C    2.778307   0.000000
    13  C    2.407746   1.395841   0.000000
    14  H    3.866393   1.088234   2.144060   0.000000
    15  C    1.396029   2.415349   1.391839   3.392798   0.000000
    16  H    3.395964   2.154113   1.087341   2.461131   2.153326
    17  H    2.174347   3.391809   2.138804   4.274752   1.086819
    18  O    1.375499   4.153806   3.662363   5.241870   2.394915
    19  H    1.935789   4.575497   3.797943   5.642212   2.413565
    20  O    2.906047   5.550498   4.717477   6.612186   3.325729
    21  O    3.726423   6.083176   5.080957   7.083175   3.772856
    22  H    4.050900   6.497744   5.631922   7.514335   4.334984
                   16         17         18         19         20
    16  H    0.000000
    17  H    2.460019   0.000000
    18  O    4.544488   2.660871   0.000000
    19  H    4.506266   2.254826   0.974131   0.000000
    20  O    5.345821   2.959854   1.756010   0.987933   0.000000
    21  O    5.512352   3.138506   2.854026   2.061592   1.466591
    22  H    6.154243   3.869030   3.055566   2.498517   1.854387
                   21         22
    21  O    0.000000
    22  H    0.977333   0.000000
 Stoichiometry    C10H9O3(2)
 Framework group  C1[X(C10H9O3)]
 Deg. of freedom    60
 Full point group                 C1      NOp   1
 Largest Abelian subgroup         C1      NOp   1
 Largest concise Abelian subgroup C1      NOp   1
                         Standard orientation:                         
 ---------------------------------------------------------------------
 Center     Atomic      Atomic             Coordinates (Angstroms)
 Number     Number       Type             X           Y           Z
 ---------------------------------------------------------------------
      1          6           0        2.429756   -1.963262    0.042748
      2          6           0        3.395968   -0.969221    0.150898
      3          6           0        3.016398    0.373662    0.151796
      4          6           0        1.664530    0.740851    0.044543
      5          6           0        1.082463   -1.614781   -0.064563
      6          6           0        0.675574   -0.264635   -0.065655
      7          1           0        0.340255   -2.406371   -0.148903
      8          1           0        2.720524   -3.010375    0.041128
      9          1           0        4.445851   -1.237379    0.234375
     10          1           0        3.788058    1.135657    0.237163
     11          6           0       -0.674211    0.128898   -0.173065
     12          6           0        1.279826    2.091837    0.045115
     13          6           0       -0.063753    2.455238   -0.060263
     14          1           0        2.030120    2.875531    0.129588
     15          6           0       -1.045474    1.474649   -0.169285
     16          1           0       -0.341574    3.506476   -0.055191
     17          1           0       -2.085394    1.781582   -0.243674
     18          8           0       -1.642707   -0.841953   -0.280118
     19          1           0       -2.512978   -0.425670   -0.415281
     20          8           0       -3.395399   -0.868845   -0.384604
     21          8           0       -4.294316   -0.277295    0.611843
     22          1           0       -4.291941   -1.034122    1.230218
 ---------------------------------------------------------------------
 Rotational constants (GHZ):           1.5330476           0.4952460           0.3816612
 Standard basis: 6-311+G(2df,2p) (5D, 7F)
 There are   588 symmetry adapted cartesian basis functions of A   symmetry.
 There are   523 symmetry adapted basis functions of A   symmetry.
   523 basis functions,   775 primitive gaussians,   588 cartesian basis functions
    47 alpha electrons       46 beta electrons
       nuclear repulsion energy       739.2025560311 Hartrees.
 NAtoms=   22 NActive=   22 NUniq=   22 SFac= 1.00D+00 NAtFMM=   60 NAOKFM=F Big=F
 Integral buffers will be    131072 words long.
 Raffenetti 2 integral format.
 Two-electron integral symmetry is turned on.
 One-electron integrals computed using PRISM.
 NBasis=   523 RedAO= T EigKep=  1.38D-06  NBF=   523
 NBsUse=   521 1.00D-06 EigRej=  6.30D-07 NBFU=   521
 ExpMin= 4.38D-02 ExpMax= 8.59D+03 ExpMxC= 1.30D+03 IAcc=2 IRadAn=         4 AccDes= 0.00D+00
 Harris functional with IExCor= 1009 and IRadAn=       4 diagonalized for initial guess.
 HarFok:  IExCor= 1009 AccDes= 0.00D+00 IRadAn=         4 IDoV= 1 UseB2=F ITyADJ=14
 ICtDFT=  3500011 ScaDFX=  1.000000  1.000000  1.000000  1.000000
 FoFCou: FMM=F IPFlag=           0 FMFlag=      100000 FMFlg1=           0
         NFxFlg=           0 DoJE=T BraDBF=F KetDBF=T FulRan=T
         wScrn=  0.000000 ICntrl=       500 IOpCl=  0 I1Cent=   200000004 NGrid=           0
         NMat0=    1 NMatS0=      1 NMatT0=    0 NMatD0=    1 NMtDS0=    0 NMtDT0=    0
 Petite list used in FoFCou.
 Initial guess <Sx>= 0.0000 <Sy>= 0.0000 <Sz>= 0.5000 <S**2>= 0.7500 S= 0.5000
 Requested convergence on RMS density matrix=1.00D-08 within 128 cycles.
 Requested convergence on MAX density matrix=1.00D-06.
 Requested convergence on             energy=1.00D-06.
 No special actions if energy rises.
 Restarting incremental Fock formation.
 SCF Done:  E(UM062X) =  -611.839128778     A.U. after   25 cycles
            NFock= 25  Conv=0.47D-08     -V/T= 2.0028
 <Sx>= 0.0000 <Sy>= 0.0000 <Sz>= 0.5000 <S**2>= 0.7583 S= 0.5041
 <L.S>= 0.000000000000E+00
 Annihilation of the first spin contaminant:
 S**2 before annihilation     0.7583,   after     0.7501

 **********************************************************************

            Population analysis using the SCF density.

 **********************************************************************

 Orbital symmetries:
 Alpha Orbitals:
       Occupied  (A) (A) (A) (A) (A) (A) (A) (A) (A) (A) (A) (A)
                 (A) (A) (A) (A) (A) (A) (A) (A) (A) (A) (A) (A)
                 (A) (A) (A) (A) (A) (A) (A) (A) (A) (A) (A) (A)
                 (A) (A) (A) (A) (A) (A) (A) (A) (A) (A) (A)
       Virtual   (A) (A) (A) (A) (A) (A) (A) (A) (A) (A) (A) (A)
                 (A) (A) (A) (A) (A) (A) (A) (A) (A) (A) (A) (A)
                 (A) (A) (A) (A) (A) (A) (A) (A) (A) (A) (A) (A)
                 (A) (A) (A) (A) (A) (A) (A) (A) (A) (A) (A) (A)
                 (A) (A) (A) (A) (A) (A) (A) (A) (A) (A) (A) (A)
                 (A) (A) (A) (A) (A) (A) (A) (A) (A) (A) (A) (A)
                 (A) (A) (A) (A) (A) (A) (A) (A) (A) (A) (A) (A)
                 (A) (A) (A) (A) (A) (A) (A) (A) (A) (A) (A) (A)
                 (A) (A) (A) (A) (A) (A) (A) (A) (A) (A) (A) (A)
                 (A) (A) (A) (A) (A) (A) (A) (A) (A) (A) (A) (A)
                 (A) (A) (A) (A) (A) (A) (A) (A) (A) (A) (A) (A)
                 (A) (A) (A) (A) (A) (A) (A) (A) (A) (A) (A) (A)
                 (A) (A) (A) (A) (A) (A) (A) (A) (A) (A) (A) (A)
                 (A) (A) (A) (A) (A) (A) (A) (A) (A) (A) (A) (A)
                 (A) (A) (A) (A) (A) (A) (A) (A) (A) (A) (A) (A)
                 (A) (A) (A) (A) (A) (A) (A) (A) (A) (A) (A) (A)
                 (A) (A) (A) (A) (A) (A) (A) (A) (A) (A) (A) (A)
                 (A) (A) (A) (A) (A) (A) (A) (A) (A) (A) (A) (A)
                 (A) (A) (A) (A) (A) (A) (A) (A) (A) (A) (A) (A)
                 (A) (A) (A) (A) (A) (A) (A) (A) (A) (A) (A) (A)
                 (A) (A) (A) (A) (A) (A) (A) (A) (A) (A) (A) (A)
                 (A) (A) (A) (A) (A) (A) (A) (A) (A) (A) (A) (A)
                 (A) (A) (A) (A) (A) (A) (A) (A) (A) (A) (A) (A)
                 (A) (A) (A) (A) (A) (A) (A) (A) (A) (A) (A) (A)
                 (A) (A) (A) (A) (A) (A) (A) (A) (A) (A) (A) (A)
                 (A) (A) (A) (A) (A) (A) (A) (A) (A) (A) (A) (A)
                 (A) (A) (A) (A) (A) (A) (A) (A) (A) (A) (A) (A)
                 (A) (A) (A) (A) (A) (A) (A) (A) (A) (A) (A) (A)
                 (A) (A) (A) (A) (A) (A) (A) (A) (A) (A) (A) (A)
                 (A) (A) (A) (A) (A) (A) (A) (A) (A) (A) (A) (A)
                 (A) (A) (A) (A) (A) (A) (A) (A) (A) (A) (A) (A)
                 (A) (A) (A) (A) (A) (A) (A) (A) (A) (A) (A) (A)
                 (A) (A) (A) (A) (A) (A) (A) (A) (A) (A) (A) (A)
                 (A) (A) (A) (A) (A) (A) (A) (A) (A) (A) (A) (A)
                 (A) (A) (A) (A) (A) (A) (A) (A) (A) (A) (A) (A)
                 (A) (A) (A) (A) (A) (A) (A) (A) (A) (A) (A) (A)
                 (A) (A) (A) (A) (A) (A) (A) (A) (A) (A) (A) (A)
                 (A) (A) (A) (A) (A) (A) (A) (A) (A) (A) (A) (A)
                 (A) (A) (A) (A) (A) (A) (A) (A) (A) (A) (A) (A)
                 (A) (A) (A) (A) (A) (A)
 Beta  Orbitals:
       Occupied  (A) (A) (A) (A) (A) (A) (A) (A) (A) (A) (A) (A)
                 (A) (A) (A) (A) (A) (A) (A) (A) (A) (A) (A) (A)
                 (A) (A) (A) (A) (A) (A) (A) (A) (A) (A) (A) (A)
                 (A) (A) (A) (A) (A) (A) (A) (A) (A) (A)
       Virtual   (A) (A) (A) (A) (A) (A) (A) (A) (A) (A) (A) (A)
                 (A) (A) (A) (A) (A) (A) (A) (A) (A) (A) (A) (A)
                 (A) (A) (A) (A) (A) (A) (A) (A) (A) (A) (A) (A)
                 (A) (A) (A) (A) (A) (A) (A) (A) (A) (A) (A) (A)
                 (A) (A) (A) (A) (A) (A) (A) (A) (A) (A) (A) (A)
                 (A) (A) (A) (A) (A) (A) (A) (A) (A) (A) (A) (A)
                 (A) (A) (A) (A) (A) (A) (A) (A) (A) (A) (A) (A)
                 (A) (A) (A) (A) (A) (A) (A) (A) (A) (A) (A) (A)
                 (A) (A) (A) (A) (A) (A) (A) (A) (A) (A) (A) (A)
                 (A) (A) (A) (A) (A) (A) (A) (A) (A) (A) (A) (A)
                 (A) (A) (A) (A) (A) (A) (A) (A) (A) (A) (A) (A)
                 (A) (A) (A) (A) (A) (A) (A) (A) (A) (A) (A) (A)
                 (A) (A) (A) (A) (A) (A) (A) (A) (A) (A) (A) (A)
                 (A) (A) (A) (A) (A) (A) (A) (A) (A) (A) (A) (A)
                 (A) (A) (A) (A) (A) (A) (A) (A) (A) (A) (A) (A)
                 (A) (A) (A) (A) (A) (A) (A) (A) (A) (A) (A) (A)
                 (A) (A) (A) (A) (A) (A) (A) (A) (A) (A) (A) (A)
                 (A) (A) (A) (A) (A) (A) (A) (A) (A) (A) (A) (A)
                 (A) (A) (A) (A) (A) (A) (A) (A) (A) (A) (A) (A)
                 (A) (A) (A) (A) (A) (A) (A) (A) (A) (A) (A) (A)
                 (A) (A) (A) (A) (A) (A) (A) (A) (A) (A) (A) (A)
                 (A) (A) (A) (A) (A) (A) (A) (A) (A) (A) (A) (A)
                 (A) (A) (A) (A) (A) (A) (A) (A) (A) (A) (A) (A)
                 (A) (A) (A) (A) (A) (A) (A) (A) (A) (A) (A) (A)
                 (A) (A) (A) (A) (A) (A) (A) (A) (A) (A) (A) (A)
                 (A) (A) (A) (A) (A) (A) (A) (A) (A) (A) (A) (A)
                 (A) (A) (A) (A) (A) (A) (A) (A) (A) (A) (A) (A)
                 (A) (A) (A) (A) (A) (A) (A) (A) (A) (A) (A) (A)
                 (A) (A) (A) (A) (A) (A) (A) (A) (A) (A) (A) (A)
                 (A) (A) (A) (A) (A) (A) (A) (A) (A) (A) (A) (A)
                 (A) (A) (A) (A) (A) (A) (A) (A) (A) (A) (A) (A)
                 (A) (A) (A) (A) (A) (A) (A) (A) (A) (A) (A) (A)
                 (A) (A) (A) (A) (A) (A) (A) (A) (A) (A) (A) (A)
                 (A) (A) (A) (A) (A) (A) (A) (A) (A) (A) (A) (A)
                 (A) (A) (A) (A) (A) (A) (A) (A) (A) (A) (A) (A)
                 (A) (A) (A) (A) (A) (A) (A) (A) (A) (A) (A) (A)
                 (A) (A) (A) (A) (A) (A) (A) (A) (A) (A) (A) (A)
                 (A) (A) (A) (A) (A) (A) (A) (A) (A) (A) (A) (A)
                 (A) (A) (A) (A) (A) (A) (A) (A) (A) (A) (A) (A)
                 (A) (A) (A) (A) (A) (A) (A)
 The electronic state is 2-A.
 Alpha  occ. eigenvalues --  -19.73551 -19.72871 -19.65275 -10.61486 -10.55869
 Alpha  occ. eigenvalues --  -10.55740 -10.55197 -10.55065 -10.55058 -10.54994
 Alpha  occ. eigenvalues --  -10.54914 -10.54783 -10.54616  -1.32465  -1.20799
 Alpha  occ. eigenvalues --   -1.05561  -0.98622  -0.92895  -0.87315  -0.85147
 Alpha  occ. eigenvalues --   -0.81166  -0.74796  -0.71475  -0.70384  -0.65518
 Alpha  occ. eigenvalues --   -0.62850  -0.59877  -0.58565  -0.57346  -0.57278
 Alpha  occ. eigenvalues --   -0.53388  -0.51709  -0.50618  -0.49910  -0.49641
 Alpha  occ. eigenvalues --   -0.47408  -0.46300  -0.45444  -0.44644  -0.42571
 Alpha  occ. eigenvalues --   -0.40944  -0.39795  -0.39433  -0.37405  -0.33581
 Alpha  occ. eigenvalues --   -0.31024  -0.25746
 Alpha virt. eigenvalues --   -0.02529   0.00498   0.01057   0.01592   0.01941
 Alpha virt. eigenvalues --    0.02825   0.03501   0.04168   0.04337   0.05914
 Alpha virt. eigenvalues --    0.06454   0.06496   0.06903   0.07678   0.08488
 Alpha virt. eigenvalues --    0.09576   0.10074   0.10334   0.10917   0.11577
 Alpha virt. eigenvalues --    0.12236   0.12911   0.14131   0.14598   0.14726
 Alpha virt. eigenvalues --    0.15179   0.15713   0.15871   0.16379   0.16949
 Alpha virt. eigenvalues --    0.17414   0.18299   0.18988   0.19118   0.19512
 Alpha virt. eigenvalues --    0.19833   0.20459   0.21408   0.21697   0.22187
 Alpha virt. eigenvalues --    0.22358   0.22818   0.23451   0.23805   0.24468
 Alpha virt. eigenvalues --    0.24810   0.25768   0.25836   0.26166   0.26768
 Alpha virt. eigenvalues --    0.27515   0.27827   0.28354   0.28840   0.29118
 Alpha virt. eigenvalues --    0.29898   0.31228   0.31757   0.32038   0.32750
 Alpha virt. eigenvalues --    0.32891   0.33274   0.34571   0.35358   0.36069
 Alpha virt. eigenvalues --    0.36713   0.37199   0.37767   0.39076   0.41779
 Alpha virt. eigenvalues --    0.44203   0.45586   0.46241   0.48388   0.49527
 Alpha virt. eigenvalues --    0.50914   0.51981   0.52472   0.52788   0.54571
 Alpha virt. eigenvalues --    0.55198   0.55784   0.56145   0.56536   0.57083
 Alpha virt. eigenvalues --    0.57837   0.58836   0.59298   0.60127   0.60926
 Alpha virt. eigenvalues --    0.61946   0.62387   0.63232   0.64243   0.65137
 Alpha virt. eigenvalues --    0.66287   0.66519   0.67666   0.68171   0.68466
 Alpha virt. eigenvalues --    0.68735   0.68913   0.69364   0.69898   0.71223
 Alpha virt. eigenvalues --    0.71957   0.72753   0.73674   0.73920   0.74639
 Alpha virt. eigenvalues --    0.75008   0.75821   0.76046   0.76718   0.77661
 Alpha virt. eigenvalues --    0.77888   0.78606   0.79607   0.80144   0.82209
 Alpha virt. eigenvalues --    0.82923   0.84753   0.85864   0.86343   0.87537
 Alpha virt. eigenvalues --    0.88046   0.88814   0.88888   0.90149   0.90643
 Alpha virt. eigenvalues --    0.91626   0.92268   0.94714   0.96506   0.98410
 Alpha virt. eigenvalues --    0.98690   1.01089   1.01821   1.02690   1.04048
 Alpha virt. eigenvalues --    1.04253   1.05039   1.06456   1.07540   1.09391
 Alpha virt. eigenvalues --    1.10371   1.10719   1.11099   1.12241   1.12905
 Alpha virt. eigenvalues --    1.14134   1.16384   1.16882   1.17103   1.17678
 Alpha virt. eigenvalues --    1.19842   1.20486   1.21387   1.21773   1.24432
 Alpha virt. eigenvalues --    1.26422   1.26787   1.27140   1.28985   1.29810
 Alpha virt. eigenvalues --    1.30207   1.31522   1.32039   1.33396   1.33819
 Alpha virt. eigenvalues --    1.34780   1.35790   1.36096   1.37064   1.37651
 Alpha virt. eigenvalues --    1.39397   1.39882   1.40161   1.40975   1.42090
 Alpha virt. eigenvalues --    1.43541   1.44297   1.45898   1.47014   1.48419
 Alpha virt. eigenvalues --    1.50044   1.51013   1.51615   1.52123   1.55055
 Alpha virt. eigenvalues --    1.56225   1.59096   1.63702   1.67190   1.67666
 Alpha virt. eigenvalues --    1.69130   1.69640   1.71811   1.72830   1.73707
 Alpha virt. eigenvalues --    1.75924   1.76251   1.77473   1.77862   1.79159
 Alpha virt. eigenvalues --    1.81302   1.83030   1.83850   1.88830   1.92182
 Alpha virt. eigenvalues --    1.92698   1.94263   2.00432   2.02124   2.03072
 Alpha virt. eigenvalues --    2.04422   2.05029   2.06837   2.10725   2.13575
 Alpha virt. eigenvalues --    2.18689   2.23084   2.26129   2.28676   2.37692
 Alpha virt. eigenvalues --    2.40646   2.45489   2.47214   2.50905   2.53849
 Alpha virt. eigenvalues --    2.56161   2.58386   2.58592   2.61334   2.62560
 Alpha virt. eigenvalues --    2.64386   2.64437   2.67782   2.68724   2.71445
 Alpha virt. eigenvalues --    2.73192   2.74365   2.74850   2.75163   2.76284
 Alpha virt. eigenvalues --    2.76951   2.77386   2.78691   2.81534   2.82154
 Alpha virt. eigenvalues --    2.82568   2.83101   2.83322   2.83602   2.85437
 Alpha virt. eigenvalues --    2.85758   2.85970   2.86389   2.86653   2.88068
 Alpha virt. eigenvalues --    2.88812   2.90020   2.91129   2.91439   2.92949
 Alpha virt. eigenvalues --    2.93603   2.95550   2.97735   2.98372   3.00205
 Alpha virt. eigenvalues --    3.01139   3.03405   3.08239   3.09358   3.11711
 Alpha virt. eigenvalues --    3.11876   3.12337   3.13290   3.13640   3.14879
 Alpha virt. eigenvalues --    3.14957   3.16352   3.16831   3.17437   3.18732
 Alpha virt. eigenvalues --    3.19234   3.22081   3.22188   3.23176   3.23805
 Alpha virt. eigenvalues --    3.25350   3.27500   3.27786   3.29547   3.30626
 Alpha virt. eigenvalues --    3.30893   3.31932   3.34013   3.34306   3.35512
 Alpha virt. eigenvalues --    3.37784   3.39928   3.40195   3.41726   3.42892
 Alpha virt. eigenvalues --    3.43040   3.43722   3.45861   3.45915   3.48772
 Alpha virt. eigenvalues --    3.49286   3.49933   3.51329   3.54123   3.54419
 Alpha virt. eigenvalues --    3.54550   3.56313   3.56959   3.62695   3.63902
 Alpha virt. eigenvalues --    3.64587   3.64990   3.65529   3.67515   3.68827
 Alpha virt. eigenvalues --    3.70000   3.72700   3.73222   3.74183   3.75845
 Alpha virt. eigenvalues --    3.76380   3.76662   3.77251   3.77488   3.78889
 Alpha virt. eigenvalues --    3.80216   3.82786   3.84141   3.86162   3.87441
 Alpha virt. eigenvalues --    3.89271   3.91314   3.91912   3.94140   3.96003
 Alpha virt. eigenvalues --    3.97887   4.00435   4.02833   4.06424   4.07580
 Alpha virt. eigenvalues --    4.08120   4.08463   4.09365   4.09805   4.14730
 Alpha virt. eigenvalues --    4.15312   4.19416   4.20456   4.22130   4.23190
 Alpha virt. eigenvalues --    4.23574   4.26722   4.29122   4.30373   4.33216
 Alpha virt. eigenvalues --    4.33561   4.35458   4.35825   4.38270   4.38960
 Alpha virt. eigenvalues --    4.39484   4.40099   4.41803   4.42871   4.44560
 Alpha virt. eigenvalues --    4.45559   4.47542   4.48304   4.48692   4.50423
 Alpha virt. eigenvalues --    4.51832   4.53260   4.55218   4.55555   4.56685
 Alpha virt. eigenvalues --    4.58747   4.60435   4.62381   4.67341   4.68563
 Alpha virt. eigenvalues --    4.72833   4.73854   4.74580   4.79313   4.81872
 Alpha virt. eigenvalues --    4.89224   4.90140   4.90409   4.91767   4.93656
 Alpha virt. eigenvalues --    4.99272   5.02693   5.06379   5.07625   5.08636
 Alpha virt. eigenvalues --    5.11703   5.12754   5.14800   5.16104   5.18699
 Alpha virt. eigenvalues --    5.19243   5.20246   5.22166   5.23939   5.28195
 Alpha virt. eigenvalues --    5.31494   5.34875   5.38325   5.44772   5.45418
 Alpha virt. eigenvalues --    5.46874   5.51520   5.51767   5.54647   5.55906
 Alpha virt. eigenvalues --    5.67067   5.69469   5.71580   5.73903   5.75677
 Alpha virt. eigenvalues --    5.75775   5.79573   5.81053   5.86820   5.87975
 Alpha virt. eigenvalues --    5.99902   6.06564   6.09209   6.26110   6.42082
 Alpha virt. eigenvalues --    6.54758   6.63827   6.73893   6.80181   6.81988
 Alpha virt. eigenvalues --    6.84829   6.96603   6.99991   7.02386   7.05744
 Alpha virt. eigenvalues --    7.19974   7.21743   7.25850   7.33167   7.37508
 Alpha virt. eigenvalues --    7.50411   7.60173   7.75193   7.85128   7.91525
 Alpha virt. eigenvalues --    8.02735  23.92202  24.20340  24.57630  24.61405
 Alpha virt. eigenvalues --   24.64355  24.66785  24.77202  24.83255  25.07409
 Alpha virt. eigenvalues --   25.23491  49.96022  50.00311  50.25242
  Beta  occ. eigenvalues --  -19.72632 -19.72230 -19.64481 -10.61483 -10.55836
  Beta  occ. eigenvalues --  -10.55737 -10.55207 -10.55070 -10.55051 -10.54969
  Beta  occ. eigenvalues --  -10.54917 -10.54778 -10.54594  -1.29199  -1.18699
  Beta  occ. eigenvalues --   -1.02749  -0.98198  -0.92772  -0.86873  -0.85078
  Beta  occ. eigenvalues --   -0.80785  -0.72889  -0.70935  -0.69686  -0.64559
  Beta  occ. eigenvalues --   -0.61809  -0.59605  -0.58392  -0.56976  -0.53340
  Beta  occ. eigenvalues --   -0.52525  -0.50877  -0.49973  -0.49257  -0.49186
  Beta  occ. eigenvalues --   -0.46875  -0.45252  -0.44506  -0.43153  -0.41013
  Beta  occ. eigenvalues --   -0.40230  -0.39183  -0.38370  -0.33225  -0.30945
  Beta  occ. eigenvalues --   -0.25563
  Beta virt. eigenvalues --   -0.11565  -0.02264   0.00603   0.01122   0.01788
  Beta virt. eigenvalues --    0.01984   0.03288   0.03621   0.04361   0.04537
  Beta virt. eigenvalues --    0.06003   0.06494   0.06582   0.07117   0.07739
  Beta virt. eigenvalues --    0.08576   0.09647   0.10127   0.10422   0.11046
  Beta virt. eigenvalues --    0.11597   0.12298   0.13039   0.14171   0.14636
  Beta virt. eigenvalues --    0.14797   0.15295   0.15811   0.15909   0.16389
  Beta virt. eigenvalues --    0.17061   0.17479   0.18345   0.19017   0.19233
  Beta virt. eigenvalues --    0.19568   0.19890   0.20544   0.21464   0.21758
  Beta virt. eigenvalues --    0.22239   0.22394   0.22893   0.23498   0.23932
  Beta virt. eigenvalues --    0.24503   0.24825   0.25827   0.25925   0.26237
  Beta virt. eigenvalues --    0.26855   0.27561   0.27852   0.28493   0.28949
  Beta virt. eigenvalues --    0.29248   0.29973   0.31362   0.31806   0.32272
  Beta virt. eigenvalues --    0.32871   0.33007   0.33476   0.34660   0.35485
  Beta virt. eigenvalues --    0.36160   0.36912   0.37282   0.37759   0.39405
  Beta virt. eigenvalues --    0.41914   0.44345   0.45696   0.46388   0.48548
  Beta virt. eigenvalues --    0.49602   0.51039   0.52020   0.52519   0.52825
  Beta virt. eigenvalues --    0.54606   0.55265   0.55823   0.56197   0.56591
  Beta virt. eigenvalues --    0.57128   0.57883   0.58883   0.59329   0.60192
  Beta virt. eigenvalues --    0.60970   0.62089   0.62434   0.63316   0.64301
  Beta virt. eigenvalues --    0.65169   0.66413   0.66543   0.67720   0.68325
  Beta virt. eigenvalues --    0.68497   0.68770   0.68928   0.69383   0.69982
  Beta virt. eigenvalues --    0.71244   0.72131   0.72812   0.73708   0.73968
  Beta virt. eigenvalues --    0.74670   0.75170   0.75884   0.76141   0.76771
  Beta virt. eigenvalues --    0.77706   0.78014   0.78675   0.79693   0.80221
  Beta virt. eigenvalues --    0.82313   0.83038   0.84937   0.85936   0.86397
  Beta virt. eigenvalues --    0.87858   0.88120   0.88902   0.89061   0.90262
  Beta virt. eigenvalues --    0.90751   0.91747   0.92410   0.95212   0.97135
  Beta virt. eigenvalues --    0.98442   0.98848   1.01297   1.01921   1.02852
  Beta virt. eigenvalues --    1.04128   1.04332   1.05304   1.06499   1.07663
  Beta virt. eigenvalues --    1.09443   1.10820   1.10923   1.11447   1.12513
  Beta virt. eigenvalues --    1.13272   1.14173   1.16709   1.16958   1.17227
  Beta virt. eigenvalues --    1.17810   1.20097   1.20940   1.21854   1.22118
  Beta virt. eigenvalues --    1.24560   1.26971   1.27196   1.27505   1.29430
  Beta virt. eigenvalues --    1.30021   1.30621   1.31695   1.32177   1.33453
  Beta virt. eigenvalues --    1.33954   1.34880   1.35828   1.36181   1.37169
  Beta virt. eigenvalues --    1.37748   1.39495   1.39948   1.40291   1.41053
  Beta virt. eigenvalues --    1.42251   1.43751   1.44551   1.46005   1.47051
  Beta virt. eigenvalues --    1.48567   1.50064   1.51095   1.51801   1.52167
  Beta virt. eigenvalues --    1.55573   1.56496   1.59699   1.64210   1.67296
  Beta virt. eigenvalues --    1.67813   1.69302   1.69711   1.72043   1.73095
  Beta virt. eigenvalues --    1.73797   1.75971   1.76318   1.77559   1.77910
  Beta virt. eigenvalues --    1.79978   1.81606   1.83209   1.84240   1.88946
  Beta virt. eigenvalues --    1.92351   1.92887   1.94414   2.00599   2.02372
  Beta virt. eigenvalues --    2.03087   2.04632   2.05372   2.06988   2.10876
  Beta virt. eigenvalues --    2.14273   2.19188   2.23230   2.26488   2.28860
  Beta virt. eigenvalues --    2.38611   2.41001   2.45928   2.47315   2.51247
  Beta virt. eigenvalues --    2.53956   2.56201   2.58548   2.58944   2.61448
  Beta virt. eigenvalues --    2.62962   2.64431   2.64505   2.67898   2.68796
  Beta virt. eigenvalues --    2.71478   2.73453   2.74494   2.74893   2.75219
  Beta virt. eigenvalues --    2.76333   2.76974   2.77455   2.78750   2.81583
  Beta virt. eigenvalues --    2.82180   2.82625   2.83163   2.83405   2.83659
  Beta virt. eigenvalues --    2.85484   2.85815   2.85997   2.86459   2.86689
  Beta virt. eigenvalues --    2.88113   2.88872   2.90086   2.91150   2.91527
  Beta virt. eigenvalues --    2.92994   2.93562   2.95562   2.97662   2.97786
  Beta virt. eigenvalues --    3.00283   3.01221   3.03513   3.08283   3.09175
  Beta virt. eigenvalues --    3.11794   3.11966   3.12343   3.13352   3.13692
  Beta virt. eigenvalues --    3.14962   3.15031   3.16362   3.16924   3.17482
  Beta virt. eigenvalues --    3.18827   3.19271   3.22129   3.22226   3.23264
  Beta virt. eigenvalues --    3.23856   3.25370   3.27588   3.27891   3.29614
  Beta virt. eigenvalues --    3.30727   3.30941   3.31969   3.34085   3.34390
  Beta virt. eigenvalues --    3.35578   3.37839   3.39976   3.40260   3.41738
  Beta virt. eigenvalues --    3.43017   3.43149   3.43756   3.45862   3.45993
  Beta virt. eigenvalues --    3.48813   3.49387   3.50021   3.51384   3.54286
  Beta virt. eigenvalues --    3.54433   3.54613   3.56388   3.57059   3.62749
  Beta virt. eigenvalues --    3.64001   3.64640   3.65053   3.65676   3.67527
  Beta virt. eigenvalues --    3.68914   3.70078   3.72830   3.73287   3.74233
  Beta virt. eigenvalues --    3.75907   3.76463   3.76744   3.77283   3.77584
  Beta virt. eigenvalues --    3.78990   3.80312   3.82821   3.84174   3.86293
  Beta virt. eigenvalues --    3.87508   3.89360   3.91424   3.91895   3.94209
  Beta virt. eigenvalues --    3.96039   3.97922   4.00474   4.02850   4.06442
  Beta virt. eigenvalues --    4.07584   4.08033   4.08474   4.09412   4.09791
  Beta virt. eigenvalues --    4.14790   4.15327   4.19490   4.20547   4.22290
  Beta virt. eigenvalues --    4.23231   4.23621   4.26781   4.29202   4.30351
  Beta virt. eigenvalues --    4.33301   4.33695   4.35509   4.35915   4.38367
  Beta virt. eigenvalues --    4.39024   4.39538   4.40162   4.41864   4.42995
  Beta virt. eigenvalues --    4.44627   4.45597   4.47673   4.48408   4.48754
  Beta virt. eigenvalues --    4.50501   4.51827   4.53387   4.55388   4.55714
  Beta virt. eigenvalues --    4.56754   4.58885   4.61201   4.62481   4.67514
  Beta virt. eigenvalues --    4.68904   4.72948   4.73978   4.74653   4.79455
  Beta virt. eigenvalues --    4.82438   4.89409   4.90375   4.90612   4.92285
  Beta virt. eigenvalues --    4.93817   4.99747   5.03701   5.06769   5.08436
  Beta virt. eigenvalues --    5.09008   5.12415   5.14109   5.15749   5.16397
  Beta virt. eigenvalues --    5.19134   5.20174   5.21417   5.22634   5.24562
  Beta virt. eigenvalues --    5.28926   5.31821   5.35810   5.38654   5.45206
  Beta virt. eigenvalues --    5.45780   5.47352   5.51847   5.52205   5.54944
  Beta virt. eigenvalues --    5.56506   5.67742   5.69688   5.71715   5.74205
  Beta virt. eigenvalues --    5.75924   5.76314   5.80063   5.81602   5.87210
  Beta virt. eigenvalues --    5.88677   6.00011   6.07313   6.09367   6.26805
  Beta virt. eigenvalues --    6.42205   6.55627   6.64316   6.75775   6.82798
  Beta virt. eigenvalues --    6.83506   6.85027   6.98326   7.01759   7.05154
  Beta virt. eigenvalues --    7.07890   7.22393   7.22853   7.29577   7.33573
  Beta virt. eigenvalues --    7.40488   7.52317   7.62854   7.77399   7.86835
  Beta virt. eigenvalues --    7.92260   8.04578  23.92210  24.20352  24.57629
  Beta virt. eigenvalues --   24.61417  24.64417  24.66788  24.77218  24.83265
  Beta virt. eigenvalues --   25.07437  25.23508  49.95959  49.99672  50.24502
          Condensed to atoms (all electrons):
               1          2          3          4          5          6
     1  C    6.379897   0.684766  -0.721136   0.714847   0.239958  -0.358960
     2  C    0.684766   6.278791  -0.379309   1.176785  -0.623435   0.022789
     3  C   -0.721136  -0.379309   9.624392  -6.074421   0.755734   0.686064
     4  C    0.714847   1.176785  -6.074421  21.556833  -1.403441  -6.512149
     5  C    0.239958  -0.623435   0.755734  -1.403441   7.395522   0.287730
     6  C   -0.358960   0.022789   0.686064  -6.512149   0.287730  22.376697
     7  H   -0.045380  -0.009485  -0.002473  -0.054761   0.393067  -0.024133
     8  H    0.385616   0.018154   0.018025  -0.018965  -0.058530   0.031878
     9  H    0.018717   0.355959  -0.025841   0.011541   0.023333  -0.023134
    10  H   -0.000579   0.018856   0.385763  -0.033371  -0.007120  -0.083541
    11  C   -0.674133  -0.452286   0.783461  -1.496267  -0.145202  -2.165163
    12  C   -0.026467  -0.386907   0.726512  -0.514866  -0.136667  -5.828978
    13  C    0.248354  -0.175730  -1.106243   0.831562   0.378481   2.080893
    14  H    0.000074   0.012789   0.034703  -0.018233   0.005349  -0.029840
    15  C   -0.595684  -0.180364   1.365773  -1.991122  -1.277037  -4.533488
    16  H   -0.001015   0.000541   0.016425   0.018879   0.000340  -0.052893
    17  H    0.000188  -0.001130   0.004701  -0.022398   0.006035   0.042301
    18  O    0.050131  -0.005346   0.003949  -0.109071   0.028282  -0.274593
    19  H    0.000222  -0.000790  -0.001302  -0.028570   0.050518   0.117509
    20  O   -0.004562  -0.001458   0.002275   0.022560  -0.050009  -0.205765
    21  O   -0.000401   0.000024  -0.000098   0.000951  -0.000339   0.010401
    22  H    0.000198   0.000138  -0.000279   0.000637   0.003077   0.014456
               7          8          9         10         11         12
     1  C   -0.045380   0.385616   0.018717  -0.000579  -0.674133  -0.026467
     2  C   -0.009485   0.018154   0.355959   0.018856  -0.452286  -0.386907
     3  C   -0.002473   0.018025  -0.025841   0.385763   0.783461   0.726512
     4  C   -0.054761  -0.018965   0.011541  -0.033371  -1.496267  -0.514866
     5  C    0.393067  -0.058530   0.023333  -0.007120  -0.145202  -0.136667
     6  C   -0.024133   0.031878  -0.023134  -0.083541  -2.165163  -5.828978
     7  H    0.458021  -0.005989  -0.000073   0.000027   0.086419   0.003967
     8  H   -0.005989   0.480015  -0.006622  -0.000106   0.000810   0.004041
     9  H   -0.000073  -0.006622   0.484105  -0.006495   0.009110   0.009650
    10  H    0.000027  -0.000106  -0.006495   0.482893  -0.000499   0.069963
    11  C    0.086419   0.000810   0.009110  -0.000499   9.538571   1.381581
    12  C    0.003967   0.004041   0.009650   0.069963   1.381581  10.026584
    13  C   -0.002117  -0.000918  -0.001154   0.012670  -0.788590  -0.676940
    14  H    0.000013  -0.000003  -0.000014   0.002397  -0.023764   0.356765
    15  C    0.029174  -0.000033   0.000906   0.002456  -0.377172   1.143182
    16  H   -0.000001   0.000000  -0.000000  -0.000009  -0.009523   0.028261
    17  H   -0.000008  -0.000001   0.000000  -0.000002  -0.062120  -0.002311
    18  O    0.000668  -0.000043   0.000011   0.000013   0.330059   0.005844
    19  H   -0.000342  -0.000005   0.000000   0.000001   0.179677  -0.019087
    20  O   -0.000238  -0.000004   0.000000   0.000000  -0.000005   0.032835
    21  O    0.000000  -0.000000   0.000000  -0.000000  -0.008676  -0.002294
    22  H   -0.000019   0.000000  -0.000000   0.000000   0.042152  -0.000570
              13         14         15         16         17         18
     1  C    0.248354   0.000074  -0.595684  -0.001015   0.000188   0.050131
     2  C   -0.175730   0.012789  -0.180364   0.000541  -0.001130  -0.005346
     3  C   -1.106243   0.034703   1.365773   0.016425   0.004701   0.003949
     4  C    0.831562  -0.018233  -1.991122   0.018879  -0.022398  -0.109071
     5  C    0.378481   0.005349  -1.277037   0.000340   0.006035   0.028282
     6  C    2.080893  -0.029840  -4.533488  -0.052893   0.042301  -0.274593
     7  H   -0.002117   0.000013   0.029174  -0.000001  -0.000008   0.000668
     8  H   -0.000918  -0.000003  -0.000033   0.000000  -0.000001  -0.000043
     9  H   -0.001154  -0.000014   0.000906  -0.000000   0.000000   0.000011
    10  H    0.012670   0.002397   0.002456  -0.000009  -0.000002   0.000013
    11  C   -0.788590  -0.023764  -0.377172  -0.009523  -0.062120   0.330059
    12  C   -0.676940   0.356765   1.143182   0.028261  -0.002311   0.005844
    13  C    8.386289   0.033990  -3.099378   0.293850   0.039465   0.005162
    14  H    0.033990   0.484047  -0.004915  -0.006752  -0.000087   0.000037
    15  C   -3.099378  -0.004915  15.328263   0.082709   0.379151  -0.167875
    16  H    0.293850  -0.006752   0.082709   0.482227  -0.006849   0.000362
    17  H    0.039465  -0.000087   0.379151  -0.006849   0.465860  -0.015888
    18  O    0.005162   0.000037  -0.167875   0.000362  -0.015888   8.384881
    19  H   -0.011696  -0.000001  -0.257618  -0.000293   0.015895   0.144256
    20  O    0.006728  -0.000004   0.212850   0.000168  -0.002755  -0.167861
    21  O   -0.007628  -0.000000   0.019714   0.000004   0.000921   0.051871
    22  H   -0.004030   0.000000  -0.050614   0.000000   0.000031  -0.006037
              19         20         21         22
     1  C    0.000222  -0.004562  -0.000401   0.000198
     2  C   -0.000790  -0.001458   0.000024   0.000138
     3  C   -0.001302   0.002275  -0.000098  -0.000279
     4  C   -0.028570   0.022560   0.000951   0.000637
     5  C    0.050518  -0.050009  -0.000339   0.003077
     6  C    0.117509  -0.205765   0.010401   0.014456
     7  H   -0.000342  -0.000238   0.000000  -0.000019
     8  H   -0.000005  -0.000004  -0.000000   0.000000
     9  H    0.000000   0.000000   0.000000  -0.000000
    10  H    0.000001   0.000000  -0.000000   0.000000
    11  C    0.179677  -0.000005  -0.008676   0.042152
    12  C   -0.019087   0.032835  -0.002294  -0.000570
    13  C   -0.011696   0.006728  -0.007628  -0.004030
    14  H   -0.000001  -0.000004  -0.000000   0.000000
    15  C   -0.257618   0.212850   0.019714  -0.050614
    16  H   -0.000293   0.000168   0.000004   0.000000
    17  H    0.015895  -0.002755   0.000921   0.000031
    18  O    0.144256  -0.167861   0.051871  -0.006037
    19  H    0.528883   0.026497  -0.053747   0.007234
    20  O    0.026497   8.238083   0.106872  -0.027475
    21  O   -0.053747   0.106872   7.803119   0.240940
    22  H    0.007234  -0.027475   0.240940   0.512987
          Atomic-Atomic Spin Densities.
               1          2          3          4          5          6
     1  C    0.068178   0.022736  -0.010622  -0.063817   0.045108   0.109540
     2  C    0.022736   0.010921   0.002574  -0.011494  -0.009367  -0.052958
     3  C   -0.010622   0.002574   0.076631  -0.063210  -0.009781  -0.023325
     4  C   -0.063817  -0.011494  -0.063210   0.432875  -0.281419  -0.819188
     5  C    0.045108  -0.009367  -0.009781  -0.281419   0.299477   0.672549
     6  C    0.109540  -0.052958  -0.023325  -0.819188   0.672549   2.099686
     7  H   -0.000392   0.000100  -0.000263   0.001155  -0.002001   0.001540
     8  H    0.000273   0.000089   0.000129  -0.000223  -0.000359  -0.000078
     9  H   -0.000074  -0.000033  -0.000207  -0.000069   0.000157   0.000149
    10  H    0.000444   0.001336  -0.000345   0.000003  -0.000735  -0.004982
    11  C   -0.082221  -0.005508  -0.025288   0.200897  -0.181570  -0.207862
    12  C   -0.031123   0.044040   0.058383   0.267988  -0.228326  -0.997797
    13  C    0.014061  -0.013052  -0.032903  -0.083561   0.090101   0.330287
    14  H    0.000022   0.000379   0.001301  -0.000589  -0.000237  -0.002980
    15  C   -0.059399   0.004049   0.042070   0.398238  -0.401659  -1.076330
    16  H   -0.000020   0.000033   0.000217   0.000391  -0.000525  -0.004077
    17  H    0.000078  -0.000010  -0.000212  -0.001405   0.001364   0.006454
    18  O    0.000355  -0.000769  -0.000322  -0.007451   0.015311   0.039289
    19  H    0.001392   0.000148  -0.000600  -0.009071   0.015129   0.036689
    20  O   -0.005273  -0.000500   0.001034   0.030190  -0.051184  -0.098152
    21  O    0.000318  -0.000008  -0.000086  -0.004494   0.005277   0.013675
    22  H    0.000062   0.000003  -0.000004  -0.000394   0.000844   0.001192
               7          8          9         10         11         12
     1  C   -0.000392   0.000273  -0.000074   0.000444  -0.082221  -0.031123
     2  C    0.000100   0.000089  -0.000033   0.001336  -0.005508   0.044040
     3  C   -0.000263   0.000129  -0.000207  -0.000345  -0.025288   0.058383
     4  C    0.001155  -0.000223  -0.000069   0.000003   0.200897   0.267988
     5  C   -0.002001  -0.000359   0.000157  -0.000735  -0.181570  -0.228326
     6  C    0.001540  -0.000078   0.000149  -0.004982  -0.207862  -0.997797
     7  H   -0.000812   0.000036  -0.000001   0.000000  -0.001170  -0.000321
     8  H    0.000036  -0.000769   0.000003  -0.000000   0.000165   0.000026
     9  H   -0.000001   0.000003   0.000485   0.000005   0.000092  -0.000066
    10  H    0.000000  -0.000000   0.000005  -0.000137   0.001158   0.003587
    11  C   -0.001170   0.000165   0.000092   0.001158   0.448448   0.034816
    12  C   -0.000321   0.000026  -0.000066   0.003587   0.034816   0.731033
    13  C    0.000309  -0.000004  -0.000037  -0.001072  -0.063690  -0.261399
    14  H    0.000000  -0.000000   0.000000   0.000017   0.000070   0.003040
    15  C    0.000691   0.000003   0.000031   0.000556  -0.142224   0.421325
    16  H    0.000000  -0.000000   0.000000   0.000001  -0.001962   0.004647
    17  H   -0.000002   0.000000  -0.000000  -0.000000   0.007810  -0.003472
    18  O    0.000781  -0.000010   0.000000   0.000003   0.072930  -0.009558
    19  H   -0.000021  -0.000000  -0.000000  -0.000000   0.021103  -0.007719
    20  O    0.000016  -0.000000   0.000000   0.000000  -0.067982   0.018975
    21  O   -0.000003  -0.000000  -0.000000  -0.000000   0.021065  -0.003382
    22  H    0.000000  -0.000000  -0.000000  -0.000000   0.002947  -0.000248
              13         14         15         16         17         18
     1  C    0.014061   0.000022  -0.059399  -0.000020   0.000078   0.000355
     2  C   -0.013052   0.000379   0.004049   0.000033  -0.000010  -0.000769
     3  C   -0.032903   0.001301   0.042070   0.000217  -0.000212  -0.000322
     4  C   -0.083561  -0.000589   0.398238   0.000391  -0.001405  -0.007451
     5  C    0.090101  -0.000237  -0.401659  -0.000525   0.001364   0.015311
     6  C    0.330287  -0.002980  -1.076330  -0.004077   0.006454   0.039289
     7  H    0.000309   0.000000   0.000691   0.000000  -0.000002   0.000781
     8  H   -0.000004  -0.000000   0.000003  -0.000000   0.000000  -0.000010
     9  H   -0.000037   0.000000   0.000031   0.000000  -0.000000   0.000000
    10  H   -0.001072   0.000017   0.000556   0.000001  -0.000000   0.000003
    11  C   -0.063690   0.000070  -0.142224  -0.001962   0.007810   0.072930
    12  C   -0.261399   0.003040   0.421325   0.004647  -0.003472  -0.009558
    13  C    0.067053  -0.001485  -0.071343  -0.001336  -0.000539   0.008030
    14  H   -0.001485  -0.002505   0.000402   0.000006   0.000001   0.000004
    15  C   -0.071343   0.000402   0.959511   0.002389  -0.010424  -0.126051
    16  H   -0.001336   0.000006   0.002389   0.000969  -0.000046  -0.000028
    17  H   -0.000539   0.000001  -0.010424  -0.000046  -0.002001   0.001164
    18  O    0.008030   0.000004  -0.126051  -0.000028   0.001164   0.466971
    19  H   -0.004451  -0.000001  -0.055879  -0.000016   0.000441   0.014593
    20  O    0.005737   0.000001   0.177124   0.000029  -0.001193  -0.163386
    21  O   -0.001320  -0.000000  -0.031837  -0.000010   0.000325   0.015606
    22  H   -0.000298  -0.000000  -0.004007  -0.000000   0.000020   0.003268
              19         20         21         22
     1  C    0.001392  -0.005273   0.000318   0.000062
     2  C    0.000148  -0.000500  -0.000008   0.000003
     3  C   -0.000600   0.001034  -0.000086  -0.000004
     4  C   -0.009071   0.030190  -0.004494  -0.000394
     5  C    0.015129  -0.051184   0.005277   0.000844
     6  C    0.036689  -0.098152   0.013675   0.001192
     7  H   -0.000021   0.000016  -0.000003   0.000000
     8  H   -0.000000  -0.000000  -0.000000  -0.000000
     9  H   -0.000000   0.000000  -0.000000  -0.000000
    10  H   -0.000000   0.000000  -0.000000  -0.000000
    11  C    0.021103  -0.067982   0.021065   0.002947
    12  C   -0.007719   0.018975  -0.003382  -0.000248
    13  C   -0.004451   0.005737  -0.001320  -0.000298
    14  H   -0.000001   0.000001  -0.000000  -0.000000
    15  C   -0.055879   0.177124  -0.031837  -0.004007
    16  H   -0.000016   0.000029  -0.000010  -0.000000
    17  H    0.000441  -0.001193   0.000325   0.000020
    18  O    0.014593  -0.163386   0.015606   0.003268
    19  H   -0.041852  -0.003130   0.007305   0.000663
    20  O   -0.003130   0.763075  -0.061128  -0.003083
    21  O    0.007305  -0.061128   0.111044   0.000293
    22  H    0.000663  -0.003083   0.000293  -0.003317
 Mulliken charges and spin densities:
               1          2
     1  C   -0.294650   0.009626
     2  C   -0.353351  -0.007290
     3  C   -0.096675   0.015171
     4  C   -0.056962  -0.014647
     5  C    0.134352  -0.021846
     6  C    0.421920   0.023323
     7  H    0.173666  -0.000356
     8  H    0.152680  -0.000718
     9  H    0.150001   0.000434
    10  H    0.156683  -0.000162
    11  C   -0.148440   0.032023
    12  C   -0.194099   0.044450
    13  C   -0.443021  -0.020911
    14  H    0.153449  -0.002555
    15  C   -0.028879   0.027236
    16  H    0.153571   0.000663
    17  H    0.158999  -0.001649
    18  O   -0.258812   0.330731
    19  H    0.302760  -0.025278
    20  O   -0.188733   0.541171
    21  O   -0.161633   0.072640
    22  H    0.267175  -0.002058
 Sum of Mulliken charges =  -0.00000   1.00000
 Mulliken charges and spin densities with hydrogens summed into heavy atoms:
               1          2
     1  C   -0.141971   0.008908
     2  C   -0.203350  -0.006856
     3  C    0.060008   0.015009
     4  C   -0.056962  -0.014647
     5  C    0.308018  -0.022202
     6  C    0.421920   0.023323
    11  C   -0.148440   0.032023
    12  C   -0.040650   0.041896
    13  C   -0.289450  -0.020248
    15  C    0.130120   0.025587
    18  O    0.043948   0.305453
    20  O   -0.188733   0.541171
    21  O    0.105542   0.070583
 Electronic spatial extent (au):  <R**2>=           2758.0948
 Charge=             -0.0000 electrons
 Dipole moment (field-independent basis, Debye):
    X=              0.2042    Y=              0.0551    Z=              1.3331  Tot=              1.3497
 Quadrupole moment (field-independent basis, Debye-Ang):
   XX=            -66.5926   YY=            -67.8919   ZZ=            -78.5146
   XY=              1.7087   XZ=             -4.8600   YZ=             -2.5809
 Traceless Quadrupole moment (field-independent basis, Debye-Ang):
   XX=              4.4071   YY=              3.1078   ZZ=             -7.5149
   XY=              1.7087   XZ=             -4.8600   YZ=             -2.5809
 Octapole moment (field-independent basis, Debye-Ang**2):
  XXX=            -26.2216  YYY=             -5.0502  ZZZ=              3.9436  XYY=            -11.1254
  XXY=            -21.3641  XXZ=             28.5132  XZZ=            -33.0048  YZZ=             -8.2744
  YYZ=              3.4366  XYZ=             12.0561
 Hexadecapole moment (field-independent basis, Debye-Ang**3):
 XXXX=          -2344.0217 YYYY=           -866.4260 ZZZZ=           -113.8891 XXXY=            102.2721
 XXXZ=           -102.3855 YYYX=             12.1039 YYYZ=             -1.4369 ZZZX=            -25.9278
 ZZZY=             -3.1548 XXYY=           -510.0337 XXZZ=           -419.9680 YYZZ=           -195.8930
 XXYZ=            -46.9120 YYXZ=            -11.4133 ZZXY=             27.7791
 N-N= 7.392025560311D+02 E-N=-2.908202039235D+03  KE= 6.101261913239D+02
                          Isotropic Fermi Contact Couplings
        Atom                 a.u.       MegaHertz       Gauss      10(-4) cm-1
     1  C(13)              0.00116       1.30629       0.46612       0.43573
     2  C(13)             -0.00109      -1.22417      -0.43682      -0.40834
     3  C(13)              0.00267       3.00269       1.07143       1.00159
     4  C(13)              0.00139       1.55773       0.55584       0.51960
     5  C(13)             -0.00090      -1.01681      -0.36282      -0.33917
     6  C(13)              0.01979      22.24525       7.93766       7.42022
     7  H(1)               0.00009       0.39006       0.13918       0.13011
     8  H(1)              -0.00014      -0.62235      -0.22207      -0.20759
     9  H(1)               0.00008       0.36399       0.12988       0.12141
    10  H(1)               0.00008       0.33660       0.12011       0.11228
    11  C(13)              0.00369       4.14947       1.48063       1.38411
    12  C(13)              0.00392       4.40629       1.57228       1.46978
    13  C(13)             -0.00388      -4.36665      -1.55813      -1.45656
    14  H(1)              -0.00053      -2.38255      -0.85015      -0.79473
    15  C(13)              0.00693       7.78867       2.77919       2.59802
    16  H(1)               0.00013       0.60332       0.21528       0.20125
    17  H(1)              -0.00039      -1.72631      -0.61599      -0.57583
    18  O(17)              0.25966    -157.40200     -56.16495     -52.50366
    19  H(1)              -0.01970     -88.05195     -31.41912     -29.37097
    20  O(17)              0.14567     -88.30216     -31.50841     -29.45443
    21  O(17)              0.01524      -9.23915      -3.29676      -3.08185
    22  H(1)              -0.00109      -4.88234      -1.74214      -1.62857
 --------------------------------------------------------
       Center         ----  Spin Dipole Couplings  ----
                      3XX-RR        3YY-RR        3ZZ-RR
 --------------------------------------------------------
     1   Atom       -0.002917     -0.005083      0.008000
     2   Atom        0.004395      0.002770     -0.007165
     3   Atom       -0.001583     -0.006205      0.007788
     4   Atom        0.008925      0.003064     -0.011989
     5   Atom        0.009238      0.001229     -0.010467
     6   Atom        0.023503     -0.022548     -0.000955
     7   Atom        0.003972      0.000525     -0.004497
     8   Atom        0.000532      0.000288     -0.000820
     9   Atom        0.000536      0.000026     -0.000562
    10   Atom        0.001232     -0.000396     -0.000836
    11   Atom        0.050622      0.003425     -0.054047
    12   Atom       -0.016349     -0.017528      0.033876
    13   Atom        0.006277      0.007482     -0.013759
    14   Atom        0.000501      0.000512     -0.001013
    15   Atom       -0.020274     -0.006089      0.026363
    16   Atom        0.000382      0.001156     -0.001538
    17   Atom       -0.001181      0.007474     -0.006292
    18   Atom        0.821958     -0.508889     -0.313069
    19   Atom        0.263368     -0.096662     -0.166705
    20   Atom        1.276449     -1.249309     -0.027140
    21   Atom        0.559585     -0.276254     -0.283331
    22   Atom       -0.004242     -0.005422      0.009664
 --------------------------------------------------------
                        XY            XZ            YZ
 --------------------------------------------------------
     1   Atom       -0.001079     -0.000898     -0.000574
     2   Atom       -0.000273      0.001223     -0.000038
     3   Atom       -0.000047      0.003088     -0.000726
     4   Atom        0.006132      0.003692      0.001700
     5   Atom       -0.002562     -0.000150     -0.000193
     6   Atom       -0.001590      0.027081     -0.001785
     7   Atom       -0.005976      0.000912     -0.000362
     8   Atom       -0.001284      0.000064     -0.000134
     9   Atom       -0.000055      0.000107      0.000015
    10   Atom        0.001008      0.000230     -0.000052
    11   Atom        0.042717     -0.017658     -0.012493
    12   Atom        0.002209     -0.006518      0.001334
    13   Atom        0.002005      0.001655      0.000072
    14   Atom        0.003550      0.000269      0.000466
    15   Atom        0.005557     -0.000622     -0.016612
    16   Atom        0.001298      0.000097      0.000102
    17   Atom        0.001088      0.000170     -0.000653
    18   Atom       -0.595630     -0.783563      0.311070
    19   Atom        0.065732      0.002633     -0.046340
    20   Atom        0.468780      1.801195      0.385402
    21   Atom        0.151982      0.302092     -0.058785
    22   Atom        0.006757     -0.014245     -0.016923
 --------------------------------------------------------


 ---------------------------------------------------------------------------------
              Anisotropic Spin Dipole Couplings in Principal Axis System
 ---------------------------------------------------------------------------------

       Atom             a.u.   MegaHertz   Gauss  10(-4) cm-1        Axes

              Baa    -0.0056    -0.749    -0.267    -0.250  0.3928  0.9173  0.0648
     1 C(13)  Bbb    -0.0025    -0.336    -0.120    -0.112  0.9163 -0.3964  0.0567
              Bcc     0.0081     1.086     0.387     0.362 -0.0777 -0.0371  0.9963
 
              Baa    -0.0073    -0.979    -0.349    -0.326 -0.1040  0.0009  0.9946
     2 C(13)  Bbb     0.0027     0.366     0.131     0.122  0.1511  0.9884  0.0149
              Bcc     0.0046     0.613     0.219     0.204  0.9830 -0.1519  0.1030
 
              Baa    -0.0062    -0.838    -0.299    -0.280 -0.0281  0.9979  0.0578
     3 C(13)  Bbb    -0.0025    -0.336    -0.120    -0.112  0.9577  0.0435 -0.2844
              Bcc     0.0087     1.174     0.419     0.392  0.2863 -0.0473  0.9570
 
              Baa    -0.0127    -1.698    -0.606    -0.566 -0.1558 -0.0459  0.9867
     4 C(13)  Bbb    -0.0008    -0.104    -0.037    -0.035 -0.5220  0.8519 -0.0428
              Bcc     0.0134     1.802     0.643     0.601  0.8386  0.5218  0.1567
 
              Baa    -0.0105    -1.405    -0.501    -0.469  0.0100  0.0187  0.9998
     5 C(13)  Bbb     0.0005     0.065     0.023     0.022  0.2805  0.9596 -0.0208
              Bcc     0.0100     1.340     0.478     0.447  0.9598 -0.2806 -0.0044
 
              Baa    -0.0227    -3.050    -1.088    -1.017 -0.0497  0.9885  0.1429
     6 C(13)  Bbb    -0.0183    -2.462    -0.878    -0.821 -0.5413 -0.1469  0.8279
              Bcc     0.0411     5.511     1.967     1.838  0.8393 -0.0362  0.5424
 
              Baa    -0.0047    -2.488    -0.888    -0.830 -0.2644 -0.2394  0.9342
     7 H(1)   Bbb    -0.0039    -2.067    -0.738    -0.690  0.5417  0.7645  0.3493
              Bcc     0.0085     4.555     1.625     1.519  0.7979 -0.5984  0.0724
 
              Baa    -0.0009    -0.488    -0.174    -0.163  0.5485  0.6448  0.5324
     8 H(1)   Bbb    -0.0008    -0.423    -0.151    -0.141 -0.3932 -0.3630  0.8447
              Bcc     0.0017     0.911     0.325     0.304  0.7379 -0.6727  0.0544
 
              Baa    -0.0006    -0.305    -0.109    -0.102 -0.0978 -0.0337  0.9946
     9 H(1)   Bbb     0.0000     0.011     0.004     0.004  0.0979  0.9943  0.0433
              Bcc     0.0006     0.294     0.105     0.098  0.9904 -0.1016  0.0940
 
              Baa    -0.0010    -0.539    -0.192    -0.180 -0.3605  0.6490  0.6700
    10 H(1)   Bbb    -0.0007    -0.382    -0.136    -0.128  0.2386 -0.6302  0.7389
              Bcc     0.0017     0.921     0.329     0.307  0.9017  0.4262  0.0723
 
              Baa    -0.0576    -7.732    -2.759    -2.579  0.1122  0.1233  0.9860
    11 C(13)  Bbb    -0.0217    -2.911    -1.039    -0.971 -0.5167  0.8548 -0.0481
              Bcc     0.0793    10.643     3.798     3.550  0.8488  0.5041 -0.1596
 
              Baa    -0.0197    -2.648    -0.945    -0.883 -0.6719  0.7339 -0.1000
    12 C(13)  Bbb    -0.0150    -2.013    -0.718    -0.671  0.7299  0.6790  0.0788
              Bcc     0.0347     4.660     1.663     1.555 -0.1257  0.0200  0.9919
 
              Baa    -0.0139    -1.865    -0.665    -0.622 -0.0822  0.0044  0.9966
    13 C(13)  Bbb     0.0049     0.654     0.233     0.218  0.7902 -0.6091  0.0679
              Bcc     0.0090     1.211     0.432     0.404  0.6074  0.7931  0.0466
 
              Baa    -0.0031    -1.629    -0.581    -0.543 -0.7024  0.7084 -0.0693
    14 H(1)   Bbb    -0.0011    -0.564    -0.201    -0.188 -0.1205 -0.0224  0.9925
              Bcc     0.0041     2.193     0.782     0.731  0.7015  0.7054  0.1011
 
              Baa    -0.0228    -3.066    -1.094    -1.023  0.8936 -0.4286 -0.1334
    15 C(13)  Bbb    -0.0107    -1.429    -0.510    -0.477  0.4459  0.8138  0.3727
              Bcc     0.0335     4.495     1.604     1.499 -0.0512 -0.3925  0.9183
 
              Baa    -0.0015    -0.824    -0.294    -0.275 -0.0370 -0.0199  0.9991
    16 H(1)   Bbb    -0.0006    -0.312    -0.111    -0.104  0.8012 -0.5982  0.0178
              Bcc     0.0021     1.136     0.405     0.379  0.5973  0.8011  0.0381
 
              Baa    -0.0063    -3.379    -1.206    -1.127 -0.0435  0.0506  0.9978
    17 H(1)   Bbb    -0.0013    -0.696    -0.248    -0.232  0.9916 -0.1192  0.0493
              Bcc     0.0076     4.074     1.454     1.359  0.1214  0.9916 -0.0450
 
              Baa    -0.7404    53.575    19.117    17.871  0.1859  0.9247 -0.3323
    18 O(17)  Bbb    -0.7118    51.503    18.378    17.180  0.5062  0.1998  0.8390
              Bcc     1.4522  -105.078   -37.494   -35.050  0.8422 -0.3241 -0.4309
 
              Baa    -0.1921  -102.502   -36.575   -34.191 -0.0738  0.4762  0.8762
    19 H(1)   Bbb    -0.0830   -44.258   -15.792   -14.763 -0.1599  0.8616 -0.4817
              Bcc     0.2751   146.760    52.368    48.954  0.9844  0.1756 -0.0126
 
              Baa    -1.3700    99.131    35.373    33.067  0.1789  0.8557 -0.4855
    20 O(17)  Bbb    -1.2645    91.495    32.648    30.520 -0.5616  0.4940  0.6637
              Bcc     2.6344  -190.627   -68.020   -63.586  0.8078  0.1540  0.5690
 
              Baa    -0.4474    32.377    11.553    10.800 -0.3152  0.5463  0.7760
    21 O(17)  Bbb    -0.2263    16.375     5.843     5.462  0.0552  0.8268 -0.5597
              Bcc     0.6737   -48.752   -17.396   -16.262  0.9474  0.1336  0.2908
 
              Baa    -0.0171    -9.119    -3.254    -3.042  0.3086  0.7210  0.6204
    22 H(1)   Bbb    -0.0111    -5.927    -2.115    -1.977  0.8459 -0.5063  0.1676
              Bcc     0.0282    15.046     5.369     5.019 -0.4350 -0.4731  0.7662
 

 ---------------------------------------------------------------------------------

 Calling FoFJK, ICntrl=      2127 FMM=F ISym2X=0 I1Cent= 0 IOpClX= 1 NMat=1 NMatS=1 NMatT=0.
 ***** Axes restored to original set *****
 -------------------------------------------------------------------
 Center     Atomic                   Forces (Hartrees/Bohr)
 Number     Number              X              Y              Z
 -------------------------------------------------------------------
      1        6          -0.025466526   -0.012178538   -0.000705358
      2        6           0.018236397   -0.020540345   -0.007499375
      3        6           0.002791462    0.029082606    0.007927791
      4        6           0.005204647   -0.005720036   -0.001366280
      5        6           0.003551286    0.019998644    0.004871602
      6        6          -0.001085802    0.012726863    0.000769001
      7        1           0.004200682   -0.003912909   -0.001245434
      8        1           0.000265317   -0.003808982   -0.001083233
      9        1          -0.002103821   -0.003173588   -0.000476878
     10        1          -0.004715181   -0.002054713   -0.000080736
     11        6          -0.019645193   -0.025541510   -0.011730326
     12        6          -0.007294945   -0.028030112   -0.006887644
     13        6           0.025250046    0.014321434    0.001491659
     14        1          -0.003731835    0.003420603    0.000938692
     15        6          -0.007451787    0.012649693    0.005727729
     16        1          -0.001518918    0.003923044    0.001192423
     17        1          -0.001477144    0.005397358    0.000963732
     18        8           0.175222074    0.143835025    0.026839871
     19        1           0.068536125   -0.070973512    0.005308170
     20        8          -0.242032165   -0.093000390   -0.061851479
     21        8           0.012501388    0.036838296    0.037304729
     22        1           0.000763892   -0.013258931   -0.000408656
 -------------------------------------------------------------------
 Cartesian Forces:  Max     0.242032165 RMS     0.046469458

 GradGradGradGradGradGradGradGradGradGradGradGradGradGradGradGradGradGrad
 Berny optimization.
 FormGI is forming the generalized inverse of G from B-inverse, IUseBI=4.
 Internal  Forces:  Max     0.233664919 RMS     0.032806327
 Search for a local minimum.
 Step number   1 out of a maximum of  132
 All quantities printed in internal units (Hartrees-Bohrs-Radians)
 Mixed Optimization -- RFO/linear search
 Second derivative matrix not updated -- first step.
 ITU=  0
     Eigenvalues ---    0.00414   0.01188   0.01371   0.01955   0.01956
     Eigenvalues ---    0.01983   0.02016   0.02044   0.02048   0.02061
     Eigenvalues ---    0.02071   0.02083   0.02084   0.02155   0.02161
     Eigenvalues ---    0.02166   0.02171   0.02175   0.02189   0.16000
     Eigenvalues ---    0.16000   0.16000   0.16000   0.16000   0.16000
     Eigenvalues ---    0.16000   0.16000   0.16000   0.16000   0.22000
     Eigenvalues ---    0.22081   0.22571   0.23530   0.24496   0.24928
     Eigenvalues ---    0.25000   0.25000   0.34999   0.35018   0.35064
     Eigenvalues ---    0.35122   0.35183   0.35185   0.35193   0.36151
     Eigenvalues ---    0.38437   0.40826   0.41424   0.43355   0.44179
     Eigenvalues ---    0.45421   0.45555   0.45660   0.45784   0.46621
     Eigenvalues ---    0.46788   0.51906   0.525421000.000001000.00000
     Eigenvalues --- 1000.000001000.000001000.000001000.000001000.00000
     Eigenvalues --- 1000.000001000.000001000.000001000.000001000.00000
     Eigenvalues --- 1000.000001000.000001000.000001000.000001000.00000
     Eigenvalues --- 1000.000001000.000001000.000001000.000001000.00000
     Eigenvalues --- 1000.000001000.000001000.000001000.000001000.00000
     Eigenvalues --- 1000.000001000.000001000.000001000.000001000.00000
     Eigenvalues --- 1000.000001000.000001000.000001000.000001000.00000
     Eigenvalues --- 1000.000001000.000001000.000001000.000001000.00000
     Eigenvalues --- 1000.000001000.000001000.000001000.000001000.00000
     Eigenvalues --- 1000.00000
 RFO step:  Lambda=-1.11132780D-01 EMin= 4.13940103D-03
 Linear search not attempted -- first point.
 Maximum step size (   0.300) exceeded in Quadratic search.
    -- Step size scaled by   0.645
 Iteration  1 RMS(Cart)=  0.09896634 RMS(Int)=  0.00526657
 Iteration  2 RMS(Cart)=  0.00640454 RMS(Int)=  0.00003804
 Iteration  3 RMS(Cart)=  0.00003848 RMS(Int)=  0.00000736
 Iteration  4 RMS(Cart)=  0.00000001 RMS(Int)=  0.00000736
 Iteration  1 RMS(Cart)=  0.00000000 RMS(Int)=  0.00000000
 Variable       Old X    -DE/DX   Delta X   Delta X   Delta X     New X
                                 (Linear)    (Quad)   (Total)
    R1        2.62759   0.01454   0.00000   0.01550   0.01551   2.64310
    R2        2.63761  -0.02157   0.00000  -0.02461  -0.02460   2.61301
    R3        2.05363  -0.00389   0.00000  -0.00542  -0.00542   2.04822
    R4        2.63711  -0.02138   0.00000  -0.02419  -0.02418   2.61292
[...]
 SLEqS3 Cycle:   661 Max:0.632725E-03 RMS:0.123366E-03 Conv:0.795293E-08
 SLEqS3 Cycle:   661 Max:0.632912E-03 RMS:0.123381E-03 Conv:0.795293E-08
 Iteration 55 RMS(Cart)=  0.00003384 RMS(Int)=  0.00016216
 SLEqS3 Cycle:   661 Max:0.640278E-03 RMS:0.123802E-03 Conv:0.854310E-08
 SLEqS3 Cycle:   661 Max:0.641262E-03 RMS:0.123892E-03 Conv:0.854310E-08
 Iteration 56 RMS(Cart)=  0.00003959 RMS(Int)=  0.00015904
 SLEqS3 Cycle:   661 Max:0.651391E-03 RMS:0.124665E-03 Conv:0.218405E-08
 SLEqS3 Cycle:   661 Max:0.641874E-03 RMS:0.123872E-03 Conv:0.218405E-08
 Iteration 57 RMS(Cart)=  0.00000828 RMS(Int)=  0.00015839
 SLEqS3 Cycle:   661 Max:0.671251E-03 RMS:0.127120E-03 Conv:0.120004E-07
 SLEqS3 Cycle:   661 Max:0.651007E-03 RMS:0.124590E-03 Conv:0.120004E-07
 Iteration 58 RMS(Cart)=  0.00003624 RMS(Int)=  0.00015560
 SLEqS3 Cycle:   661 Max:0.657867E-03 RMS:0.125125E-03 Conv:0.157704E-07
 SLEqS3 Cycle:   661 Max:0.658670E-03 RMS:0.125205E-03 Conv:0.157704E-07
 Iteration 59 RMS(Cart)=  0.00003477 RMS(Int)=  0.00015297
 SLEqS3 Cycle:   661 Max:0.667282E-03 RMS:0.125916E-03 Conv:0.975652E-08
 SLEqS3 Cycle:   661 Max:0.664292E-03 RMS:0.125607E-03 Conv:0.975652E-08
 Iteration 60 RMS(Cart)=  0.00002930 RMS(Int)=  0.00015079
 SLEqS3 Cycle:   661 Max:0.671794E-03 RMS:0.126301E-03 Conv:0.923845E-08
 SLEqS3 Cycle:   661 Max:0.670491E-03 RMS:0.126171E-03 Conv:0.923845E-08
 Iteration 61 RMS(Cart)=  0.00002812 RMS(Int)=  0.00014874
 SLEqS3 Cycle:   661 Max:0.671940E-03 RMS:0.126374E-03 Conv:0.232159E-08
 SLEqS3 Cycle:   661 Max:0.669911E-03 RMS:0.126207E-03 Conv:0.232159E-08
 Iteration 62 RMS(Cart)=  0.00000052 RMS(Int)=  0.00014878
 SLEqS3 Cycle:   661 Max:0.378396E-03 RMS:0.929636E-04 Conv:0.377859E-09
 SLEqS3 Cycle:   661 Max:0.378393E-03 RMS:0.929642E-04 Conv:0.377859E-09
 Iteration  1 RMS(Cart)=  0.00001402 RMS(Int)=  0.00005196
 SLEqS3 Cycle:   661 Max:0.377925E-03 RMS:0.930285E-04 Conv:0.377858E-09
 SLEqS3 Cycle:   661 Max:0.377918E-03 RMS:0.930296E-04 Conv:0.377858E-09
 Iteration  2 RMS(Cart)=  0.00000225 RMS(Int)=  0.00005196
 SLEqS3 Cycle:   661 Max:0.377855E-03 RMS:0.930400E-04 Conv:0.377858E-09
 SLEqS3 Cycle:   661 Max:0.377849E-03 RMS:0.930409E-04 Conv:0.377858E-09
 Iteration  3 RMS(Cart)=  0.00000044 RMS(Int)=  0.00005196
 ITry=10 IFail=0 DXMaxC= 8.27D-02 DCOld= 1.00D+10 DXMaxT= 1.07D+00 DXLimC= 3.00D+00 Rises=F
 Variable       Old X    -DE/DX   Delta X   Delta X   Delta X     New X
                                 (Linear)    (Quad)   (Total)
    R1        2.65507  -0.00101  -0.00079   0.00180  -0.00079   2.65427
    R2        2.60468  -0.00097  -0.00284   0.00929  -0.00283   2.60185
    R3        2.04222   0.00005  -0.00013   0.00072  -0.00012   2.04210
    R4        2.59194   0.00174   0.00046  -0.00026   0.00048   2.59242
    R5        2.04273   0.00021   0.00012  -0.00036   0.00013   2.04285
    R6        2.66275   0.00001  -0.00080   0.00228  -0.00077   2.66198
    R7        2.04428  -0.00020  -0.00038   0.00100  -0.00039   2.04389
    R8        2.67094  -0.00022  -0.00002  -0.00182  -0.00009   2.67086
    R9        2.68881  -0.00037  -0.00026   0.00060  -0.00026   2.68855
   R10        2.64027   0.00148   0.00034  -0.00120   0.00037   2.64063
   R11        2.04034   0.00009   0.00013  -0.00032   0.00013   2.04047
   R12        2.73190  -0.00064  -0.00261   0.00626  -0.00261   2.72929
   R13        2.67315   0.00003  -0.00123   0.00327  -0.00127   2.67187
   R14        2.59932  -0.10158  -0.00001   0.00000  -0.00001   2.59931
   R15        2.61479   0.00035  -0.00023   0.00111  -0.00018   2.61461
   R16        2.04488  -0.00001  -0.00014   0.00037  -0.00015   2.04473
   R17        2.61743   0.00099   0.00067  -0.00311   0.00069   2.61812
   R18        2.04225  -0.00021  -0.00051   0.00176  -0.00052   2.04174
   R19        2.04474   0.00033   0.00112  -0.00381   0.00111   2.04585
   R20        3.00412   0.00702  -0.00001   0.15935   0.00001   3.00413
   R21        1.86745   0.00526  -0.00001   0.00000   0.00001   1.86746
   R22        2.69117   0.00040  -0.00095   0.00313  -0.00095   2.69022
   R23        1.81914  -0.00025  -0.00262   0.00797  -0.00260   1.81654
    A1        2.10501  -0.00012  -0.00028   0.00025  -0.00029   2.10472
    A2        2.08541   0.00023   0.00096  -0.00265   0.00096   2.08637
    A3        2.09276  -0.00011  -0.00068   0.00240  -0.00067   2.09209
    A4        2.09876   0.00012   0.00043  -0.00155   0.00042   2.09918
    A5        2.09018  -0.00011   0.00010  -0.00042   0.00009   2.09027
    A6        2.09424  -0.00001  -0.00053   0.00197  -0.00052   2.09373
    A7        2.09878   0.00009  -0.00004   0.00049  -0.00004   2.09874
    A8        2.10932  -0.00014  -0.00053   0.00131  -0.00054   2.10878
    A9        2.07508   0.00004   0.00057  -0.00180   0.00057   2.07566
   A10        2.07832  -0.00047  -0.00081   0.00214  -0.00082   2.07750
   A11        2.12409   0.00004   0.00005   0.00111   0.00011   2.12420
   A12        2.08078   0.00043   0.00076  -0.00326   0.00071   2.08148
   A13        2.09039   0.00039   0.00050  -0.00126   0.00051   2.09090
   A14        2.12590  -0.00053  -0.00134   0.00386  -0.00134   2.12455
   A15        2.06690   0.00014   0.00084  -0.00260   0.00083   2.06773
   A16        2.09512  -0.00002   0.00021  -0.00008   0.00022   2.09533
   A17        2.06347  -0.00007  -0.00136   0.00488  -0.00131   2.06216
   A18        2.12459   0.00008   0.00115  -0.00481   0.00110   2.12569
   A19        2.10337   0.00024   0.00186  -0.00479   0.00190   2.10527
   A20        2.09506  -0.00032   0.00195  -0.01234   0.00161   2.09667
   A21        2.08474   0.00008  -0.00380   0.01713  -0.00350   2.08123
   A22        2.12362  -0.00015  -0.00003   0.00035  -0.00002   2.12360
   A23        2.06599   0.00018   0.00070  -0.00241   0.00068   2.06667
   A24        2.09357  -0.00003  -0.00067   0.00206  -0.00066   2.09291
   A25        2.10203  -0.00029  -0.00089   0.00295  -0.00087   2.10117
   A26        2.09291  -0.00014  -0.00077   0.00249  -0.00078   2.09213
   A27        2.08823   0.00043   0.00167  -0.00544   0.00164   2.08988
   A28        2.09309  -0.00016  -0.00034  -0.00014  -0.00040   2.09268
   A29        2.05443   0.00007  -0.00066   0.00269  -0.00062   2.05380
   A30        2.13554   0.00010   0.00099  -0.00255   0.00103   2.13657
   A31        2.05499  -0.00421  -0.01248   0.05228  -0.01148   2.04351
   A32        3.14159   0.00375  -0.00000   0.57387  -0.00000   3.14159
   A33        1.76574  -0.00049  -0.00524   0.01734  -0.00522   1.76052
   A34        1.78140   0.00064   0.00072  -0.00219   0.00070   1.78210
    D1        0.00093   0.00000  -0.00001   0.00005  -0.00001   0.00092
    D2       -3.13675   0.00000  -0.00000   0.00000  -0.00000  -3.13675
    D3        3.13851  -0.00002  -0.00007   0.00024  -0.00007   3.13844
    D4        0.00083  -0.00002  -0.00006   0.00019  -0.00006   0.00077
    D5       -0.00049  -0.00001   0.00001  -0.00005   0.00001  -0.00048
    D6        3.14008  -0.00000  -0.00003   0.00008  -0.00003   3.14005
    D7       -3.13806   0.00001   0.00007  -0.00022   0.00007  -3.13799
    D8        0.00251   0.00002   0.00003  -0.00009   0.00003   0.00254
    D9       -0.00085  -0.00000  -0.00004   0.00014  -0.00004  -0.00089
   D10       -3.13921  -0.00000   0.00001  -0.00002   0.00001  -3.13920
   D11        3.13682  -0.00000  -0.00005   0.00018  -0.00005   3.13677
   D12       -0.00154  -0.00000  -0.00000   0.00002  -0.00000  -0.00154
   D13        0.00035   0.00001   0.00010  -0.00032   0.00010   0.00045
   D14       -3.13994  -0.00000   0.00007  -0.00021   0.00007  -3.13986
   D15        3.13877   0.00001   0.00005  -0.00016   0.00005   3.13882
   D16       -0.00152  -0.00000   0.00002  -0.00005   0.00002  -0.00150
   D17        0.00008  -0.00001  -0.00010   0.00033  -0.00010  -0.00002
   D18       -3.13855   0.00002  -0.00002   0.00012  -0.00002  -3.13858
   D19        3.14040  -0.00000  -0.00008   0.00023  -0.00008   3.14033
   D20        0.00177   0.00002   0.00000   0.00002   0.00001   0.00177
   D21       -3.14122   0.00001  -0.00006   0.00017  -0.00006  -3.14127
   D22       -0.00177   0.00001   0.00005  -0.00017   0.00005  -0.00172
   D23        0.00168   0.00001  -0.00009   0.00028  -0.00009   0.00160
   D24        3.14113  -0.00000   0.00003  -0.00006   0.00003   3.14115
   D25       -0.00001   0.00001   0.00005  -0.00015   0.00005   0.00004
   D26        3.13852  -0.00002  -0.00004   0.00009  -0.00004   3.13848
   D27       -3.14061   0.00001   0.00009  -0.00028   0.00009  -3.14052
   D28       -0.00208  -0.00002   0.00000  -0.00005   0.00000  -0.00208
   D29       -0.00489  -0.00006   0.00004  -0.00020   0.00004  -0.00484
   D30        3.12973   0.00004   0.00031  -0.00104   0.00031   3.13004
   D31        3.13972  -0.00003   0.00013  -0.00042   0.00013   3.13984
   D32       -0.00885   0.00007   0.00040  -0.00126   0.00040  -0.00846
   D33        0.00460   0.00006  -0.00002   0.00011  -0.00002   0.00458
   D34       -3.11986   0.00013   0.00001  -0.00004   0.00001  -3.11985
   D35       -3.13005  -0.00004  -0.00031   0.00105  -0.00031  -3.13036
   D36        0.02867   0.00003  -0.00028   0.00090  -0.00028   0.02840
   D37       -3.09958   0.00067   0.00243  -0.00701   0.00242  -3.09716
   D38        0.03511   0.00076   0.00272  -0.00792   0.00270   0.03781
   D39       -0.00208  -0.00001   0.00011  -0.00037   0.00011  -0.00197
   D40        3.13494  -0.00004   0.00008  -0.00021   0.00008   3.13502
   D41       -3.14149  -0.00000  -0.00000  -0.00003  -0.00000  -3.14149
   D42       -0.00447  -0.00003  -0.00004   0.00013  -0.00004  -0.00451
   D43       -0.00110  -0.00002  -0.00005   0.00016  -0.00005  -0.00115
   D44        3.12254  -0.00010  -0.00010   0.00037  -0.00010   3.12244
   D45       -3.13813   0.00001  -0.00002  -0.00002  -0.00001  -3.13814
   D46       -0.01449  -0.00007  -0.00006   0.00019  -0.00006  -0.01455
   D47        2.95282   0.00047   0.00803  -0.02459   0.00795   2.96077
   D48        2.49592   0.00047   0.00761  -0.02330   0.00753   2.50346
   D49       -1.77989   0.00002  -0.00273   0.00851  -0.00271  -1.78259
         Item               Value     Threshold  Converged?
 Maximum Force            0.007015     0.002500     NO 
 RMS     Force            0.000951     0.001667     YES
 Maximum Displacement     0.082734     0.010000     NO 
 RMS     Displacement     0.015695     0.006667     NO 
 Predicted change in Energy=-2.805272D-05
 GradGradGradGradGradGradGradGradGradGradGradGradGradGradGradGradGradGrad

                          Input orientation:                          
 ---------------------------------------------------------------------
 Center     Atomic      Atomic             Coordinates (Angstroms)
 Number     Number       Type             X           Y           Z
 ---------------------------------------------------------------------
      1          6           0        0.194510   15.646442    1.051044
      2          6           0        1.512452   15.235934    0.791506
      3          6           0        1.767809   13.955414    0.370751
      4          6           0        0.710122   13.041468    0.196630
      5          6           0       -0.856590   14.772115    0.888478
      6          6           0       -0.612317   13.464364    0.460999
      7          1           0       -1.876535   15.067715    1.084032
      8          1           0        0.007193   16.657034    1.384788
      9          1           0        2.328102   15.932169    0.927894
     10          1           0        2.779388   13.629217    0.170455
     11          6           0       -1.681774   12.510735    0.279894
     12          6           0        0.939649   11.705797   -0.236299
     13          6           0       -0.099798   10.808806   -0.407445
     14          1           0        1.957355   11.396756   -0.435157
     15          6           0       -1.406589   11.194091   -0.155792
     16          1           0        0.107218    9.802992   -0.743356
     17          1           0       -2.246065   10.524876   -0.295384
     18          8           0       -2.982725   12.874874    0.538586
     19          1           0       -4.095104   11.751020    0.375008
     20          8           0       -4.786593   11.052398    0.273322
     21          8           0       -4.423054   10.496045   -0.985629
     22          1           0       -5.069386   10.893435   -1.575864
 ---------------------------------------------------------------------
                    Distance matrix (angstroms):
                    1          2          3          4          5
     1  C    0.000000
     2  C    1.404581   0.000000
     3  C    2.407830   1.371851   0.000000
     4  C    2.789583   2.411078   1.408658   0.000000
     5  C    1.376839   2.415966   2.796876   2.434827   0.000000
     6  C    2.400122   2.786098   2.431928   1.413356   1.397363
     7  H    2.150637   3.405746   3.876497   3.403521   1.079772
     8  H    1.080633   2.153441   3.380353   3.870161   2.131985
     9  H    2.156160   1.081032   2.128826   3.392457   3.389623
    10  H    3.395030   2.138311   1.081580   2.151278   3.878416
    11  C    3.734671   4.229839   3.740986   2.451484   2.482971
    12  C    4.212027   3.721069   2.472880   1.422718   3.727453
    13  C    5.061277   4.861717   3.740947   2.450644   4.237921
    14  H    4.834899   4.054865   2.689265   2.158662   4.589483
    15  C    4.882970   5.074905   4.240159   2.831513   3.767659
    16  H    6.113379   5.817847   4.608840   3.425608   5.318270
    17  H    5.830927   6.123875   5.321984   3.913356   4.622901
    18  O    4.247237   5.083816   4.874762   3.712385   2.870957
    19  H    5.833706   6.615344   6.263634   4.978682   4.458547
    20  O    6.820666   7.579477   7.169183   5.846038   5.446067
    21  O    7.210861   7.800961   7.220373   5.850334   5.875093
    22  H    7.563089   8.233003   7.740301   6.415489   6.234163
                    6          7          8          9         10
     6  C    0.000000
     7  H    2.134749   0.000000
     8  H    3.380876   2.482906   0.000000
     9  H    3.867056   4.295420   2.474025   0.000000
    10  H    3.408116   4.957976   4.281045   2.465961   0.000000
    11  C    1.444280   2.687512   4.611420   5.310859   4.600537
    12  C    2.446912   4.580028   5.292650   4.598410   2.692514
    13  C    2.840573   4.849702   6.117623   5.824661   4.071657
    14  H    3.417793   5.521104   5.897953   4.750298   2.454869
    15  C    2.483029   4.094261   5.849436   6.129574   4.853728
    16  H    3.920949   5.915398   7.177527   6.729949   4.755580
    17  H    3.447004   4.762009   6.745629   7.187366   5.925294
    18  O    2.443840   2.515893   4.894936   6.140317   5.822928
    19  H    3.882364   4.052805   6.474370   7.684092   7.129383
    20  O    4.824665   5.024785   7.458397   8.652140   7.993413
    21  O    5.042357   5.627471   7.950079   8.876437   7.939047
    22  H    5.533891   5.890158   8.231415   9.294110   8.493373
                   11         12         13         14         15
    11  C    0.000000
    12  C    2.790383   0.000000
    13  C    2.423147   1.383594   0.000000
    14  H    3.872403   1.082025   2.139704   0.000000
    15  C    1.413895   2.402739   1.385452   3.381603   0.000000
    16  H    3.402852   2.137923   1.080442   2.461317   2.138223
    17  H    2.143130   3.398064   2.167865   4.295166   1.082615
    18  O    1.375497   4.165597   3.670815   5.247609   2.406532
    19  H    2.531872   5.071930   4.178812   6.116709   2.796432
    20  O    3.430262   5.785887   4.742239   6.789799   3.410080
    21  O    3.629758   5.548295   4.372947   6.467142   3.205459
    22  H    4.187531   6.209900   5.105798   7.136500   3.939935
                   16         17         18         19         20
    16  H    0.000000
    17  H    2.501946   0.000000
    18  O    4.541760   2.600128   0.000000
    19  H    4.764982   2.317714   1.589715   0.000000
    20  O    5.152090   2.656311   2.577931   0.988216   0.000000
    21  O    4.589377   2.283977   3.171216   1.879853   1.423604
    22  H    5.355311   3.121956   3.570876   2.343198   1.877427
                   21         22
    21  O    0.000000
    22  H    0.961270   0.000000
 Stoichiometry    C10H9O3(2)
 Framework group  C1[X(C10H9O3)]
 Deg. of freedom    60
 Full point group                 C1      NOp   1
 Largest Abelian subgroup         C1      NOp   1
 Largest concise Abelian subgroup C1      NOp   1
                         Standard orientation:                         
 ---------------------------------------------------------------------
 Center     Atomic      Atomic             Coordinates (Angstroms)
 Number     Number       Type             X           Y           Z
 ---------------------------------------------------------------------
      1          6           0        2.803836   -1.707990    0.087128
      2          6           0        3.603461   -0.553714    0.120260
      3          6           0        3.025207    0.689629    0.079084
      4          6           0        1.624582    0.818650    0.002139
      5          6           0        1.432647   -1.608580    0.012002
      6          6           0        0.829021   -0.349060   -0.031195
      7          1           0        0.800564   -2.483565   -0.015940
      8          1           0        3.271984   -2.681489    0.117222
      9          1           0        4.679048   -0.647365    0.174778
     10          1           0        3.632516    1.584320    0.101871
     11          6           0       -0.604606   -0.194766   -0.113987
     12          6           0        0.992408    2.092356   -0.044295
     13          6           0       -0.383392    2.218257   -0.119492
     14          1           0        1.614594    2.977199   -0.017549
     15          6           0       -1.189376    1.091907   -0.154168
     16          1           0       -0.833170    3.200240   -0.147100
     17          1           0       -2.269523    1.152242   -0.195373
     18          8           0       -1.416746   -1.303845   -0.162615
     19          1           0       -2.978746   -1.051012   -0.315668
     20          8           0       -3.949734   -0.893844   -0.410811
     21          8           0       -4.155587    0.116610    0.570645
     22          1           0       -4.543472   -0.382070    1.295147
 ---------------------------------------------------------------------
 Rotational constants (GHZ):           1.6793722           0.4538436           0.3630422
 Standard basis: 6-311+G(2df,2p) (5D, 7F)
 There are   588 symmetry adapted cartesian basis functions of A   symmetry.
 There are   523 symmetry adapted basis functions of A   symmetry.
   523 basis functions,   775 primitive gaussians,   588 cartesian basis functions
    47 alpha electrons       46 beta electrons
       nuclear repulsion energy       726.6411431999 Hartrees.
 NAtoms=   22 NActive=   22 NUniq=   22 SFac= 1.00D+00 NAtFMM=   60 NAOKFM=F Big=F
 Integral buffers will be    131072 words long.
 Raffenetti 2 integral format.
 Two-electron integral symmetry is turned on.
 One-electron integrals computed using PRISM.
 NBasis=   523 RedAO= T EigKep=  1.54D-06  NBF=   523
 NBsUse=   521 1.00D-06 EigRej=  5.67D-07 NBFU=   521
 Lowest energy guess from the checkpoint file:  "/scratch/dinius.ab/QMscratch/Gau-26991.chk"
 B after Tr=     0.000000   -0.000000    0.000000
         Rot=    1.000000   -0.000250    0.000047    0.000382 Ang=  -0.05 deg.
 B after Tr=     0.000000   -0.000000    0.000000
         Rot=    0.999997    0.001350   -0.000243   -0.001804 Ang=   0.26 deg.
 Initial guess <Sx>= 0.0000 <Sy>= 0.0000 <Sz>= 0.5000 <S**2>= 0.7938 S= 0.5217
 Requested convergence on RMS density matrix=1.00D-08 within 128 cycles.
 Requested convergence on MAX density matrix=1.00D-06.
 Requested convergence on             energy=1.00D-06.
 No special actions if energy rises.
