 Entering Gaussian System, Link 0=g16
 Input=rxn908.com
 Output=rxn908.log
 Initial command:
 /shared/centos7/gaussian/g16/l1.exe "/scratch/dinius.ab/QMscratch/Gau-18032.inp" -scrdir="/scratch/dinius.ab/QMscratch/"
 Entering Link 1 = /shared/centos7/gaussian/g16/l1.exe PID=     18035.
  
 Copyright (c) 1988,1990,1992,1993,1995,1998,2003,2009,2016,
            Gaussian, Inc.  All Rights Reserved.
  
 This is part of the Gaussian(R) 16 program.  It is based on
 the Gaussian(R) 09 system (copyright 2009, Gaussian, Inc.),
 the Gaussian(R) 03 system (copyright 2003, Gaussian, Inc.),
 the Gaussian(R) 98 system (copyright 1998, Gaussian, Inc.),
 the Gaussian(R) 94 system (copyright 1995, Gaussian, Inc.),
 the Gaussian 92(TM) system (copyright 1992, Gaussian, Inc.),
 the Gaussian 90(TM) system (copyright 1990, Gaussian, Inc.),
 the Gaussian 88(TM) system (copyright 1988, Gaussian, Inc.),
 the Gaussian 86(TM) system (copyright 1986, Carnegie Mellon
 University), and the Gaussian 82(TM) system (copyright 1983,
 Carnegie Mellon University). Gaussian is a federally registered
 trademark of Gaussian, Inc.
  
 This software contains proprietary and confidential information,
 including trade secrets, belonging to Gaussian, Inc.
  
 This software is provided under written license and may be
 used, copied, transmitted, or stored only in accord with that
 written license.
  
 The following legend is applicable only to US Government
 contracts under FAR:
  
                    RESTRICTED RIGHTS LEGEND
  
 Use, reproduction and disclosure by the US Government is
 subject to restrictions as set forth in subparagraphs (a)
 and (c) of the Commercial Computer Software - Restricted
 Rights clause in FAR 52.227-19.
  
 Gaussian, Inc.
 340 Quinnipiac St., Bldg. 40, Wallingford CT 06492
  
  
 ---------------------------------------------------------------
 Warning -- This program may not be used in any manner that
 competes with the business of Gaussian, Inc. or will provide
 assistance to any competitor of Gaussian, Inc.  The licensee
 of this program is prohibited from giving any competitor of
 Gaussian, Inc. access to this program.  By using this program,
 the user acknowledges that Gaussian, Inc. is engaged in the
 business of creating and licensing software in the field of
 computational chemistry and represents and warrants to the
 licensee that it is not a competitor of Gaussian, Inc. and that
 it will not use this program in any manner prohibited above.
 ---------------------------------------------------------------
  

 Cite this work as:
 Gaussian 16, Revision A.03,
 M. J. Frisch, G. W. Trucks, H. B. Schlegel, G. E. Scuseria, 
 M. A. Robb, J. R. Cheeseman, G. Scalmani, V. Barone, 
 G. A. Petersson, H. Nakatsuji, X. Li, M. Caricato, A. V. Marenich, 
 J. Bloino, B. G. Janesko, R. Gomperts, B. Mennucci, H. P. Hratchian, 
 J. V. Ortiz, A. F. Izmaylov, J. L. Sonnenberg, D. Williams-Young, 
 F. Ding, F. Lipparini, F. Egidi, J. Goings, B. Peng, A. Petrone, 
 T. Henderson, D. Ranasinghe, V. G. Zakrzewski, J. Gao, N. Rega, 
 G. Zheng, W. Liang, M. Hada, M. Ehara, K. Toyota, R. Fukuda, 
 J. Hasegawa, M. Ishida, T. Nakajima, Y. Honda, O. Kitao, H. Nakai, 
 T. Vreven, K. Throssell, J. A. Montgomery, Jr., J. E. Peralta, 
 F. Ogliaro, M. J. Bearpark, J. J. Heyd, E. N. Brothers, K. N. Kudin, 
 V. N. Staroverov, T. A. Keith, R. Kobayashi, J. Normand, 
 K. Raghavachari, A. P. Rendell, J. C. Burant, S. S. Iyengar, 
 J. Tomasi, M. Cossi, J. M. Millam, M. Klene, C. Adamo, R. Cammi, 
 J. W. Ochterski, R. L. Martin, K. Morokuma, O. Farkas, 
 J. B. Foresman, and D. J. Fox, Gaussian, Inc., Wallingford CT, 2016.
 
 ******************************************
 Gaussian 16:  EM64L-G16RevA.03 25-Dec-2016
                 6-Dec-2018 
 ******************************************
 ----------------------------------------------------------------------
 #m062x/6-311+g(2df,2p) Opt=(ModRedun,Loose,maxcycle=1000) Int(Grid=SG1
 ) freq
 ----------------------------------------------------------------------
 1/6=1000,7=-1,18=120,19=15,26=2,38=1/1,3;
 2/9=110,12=2,17=6,18=5,40=1/2;
 3/5=4,6=6,7=214,11=2,25=1,30=1,71=1,74=-55,75=1/1,2,3;
 4//1;
 5/5=2,38=5/2;
 6/7=2,8=2,9=2,10=2,28=1/1;
 7//1,2,3,16;
 1/6=1000,7=-1,18=20,19=15,26=2/3(2);
 2/9=110/2;
 99//99;
 2/9=110/2;
 3/5=4,6=6,7=214,11=2,25=1,30=1,71=1,74=-55,75=1/1,2,3;
 4/5=5,16=3,69=1/1;
 5/5=2,38=5/2;
 7//1,2,3,16;
 1/6=1000,7=-1,18=20,19=15,26=2/3(-5);
 2/9=110/2;
 6/7=2,8=2,9=2,10=2,19=2,28=1/1;
 99/9=1/99;
 -----
 Title
 -----
 Symbolic Z-matrix:
 Charge =  0 Multiplicity = 2
 C                    -8.26798  -0.03734  -0.52289 
 C                    -7.26937   0.93815  -0.53656 
 C                    -7.93965  -1.35486  -0.19724 
 C                    -6.62418  -1.69641   0.11039 
 H                    -8.70866  -2.12365  -0.18103 
 C                    -5.95034   0.60152  -0.22873 
 H                    -7.52235   1.96599  -0.78929 
 C                    -5.62583  -0.72195   0.09622 
 H                    -6.38194  -2.72642   0.36185 
 C                    -4.95246   1.57774  -0.2427 
 C                    -3.63694   1.23646   0.06612 
 H                    -5.19514   2.60774  -0.49403 
 C                    -3.31437  -0.0801    0.38928 
 H                    -2.86152   1.99849   0.05472 
 C                    -4.30659  -1.05869   0.40449 
 H                    -4.04603  -2.08376   0.6578 
 H                    -2.28751  -0.34429   0.62978 
 C                    -9.70131   0.34207  -0.85615 
 H                    -9.74564   0.9092   -1.79155 
 H                    -10.12229   0.95659  -0.05646 
 H                    -10.32792  -0.5462   -0.96717 
 O                    -9.99174   1.59104  -2.62267 
 O                    -10.52605   2.60195  -3.54706 
 H                    -11.19753   2.0612   -4.00202 
 
 The following ModRedundant input section has been read:
 B      18      19 F                                                           
 B      19      22 F                                                           
 

 GradGradGradGradGradGradGradGradGradGradGradGradGradGradGradGradGradGrad
 Berny optimization.
 Initialization pass.
                           ----------------------------
                           !    Initial Parameters    !
                           ! (Angstroms and Degrees)  !
 --------------------------                            --------------------------
 ! Name  Definition              Value          Derivative Info.                !
 --------------------------------------------------------------------------------
 ! R1    R(1,2)                  1.3961         estimate D2E/DX2                !
 ! R2    R(1,3)                  1.3963         estimate D2E/DX2                !
 ! R3    R(1,18)                 1.5197         estimate D2E/DX2                !
 ! R4    R(2,6)                  1.3957         estimate D2E/DX2                !
 ! R5    R(2,7)                  1.0883         estimate D2E/DX2                !
 ! R6    R(3,4)                  1.3935         estimate D2E/DX2                !
 ! R7    R(3,5)                  1.0875         estimate D2E/DX2                !
 ! R8    R(4,8)                  1.3952         estimate D2E/DX2                !
 ! R9    R(4,9)                  1.0876         estimate D2E/DX2                !
 ! R10   R(6,8)                  1.4009         estimate D2E/DX2                !
 ! R11   R(6,10)                 1.3961         estimate D2E/DX2                !
 ! R12   R(8,15)                 1.396          estimate D2E/DX2                !
 ! R13   R(10,11)                1.3937         estimate D2E/DX2                !
 ! R14   R(10,12)                1.0876         estimate D2E/DX2                !
 ! R15   R(11,13)                1.3935         estimate D2E/DX2                !
 ! R16   R(11,14)                1.0872         estimate D2E/DX2                !
 ! R17   R(13,15)                1.3937         estimate D2E/DX2                !
 ! R18   R(13,17)                1.0872         estimate D2E/DX2                !
 ! R19   R(15,16)                1.0876         estimate D2E/DX2                !
 ! R20   R(18,19)                1.0948         Frozen                          !
 ! R21   R(18,20)                1.0929         estimate D2E/DX2                !
 ! R22   R(18,21)                1.0927         estimate D2E/DX2                !
 ! R23   R(19,22)                1.1028         Frozen                          !
 ! R24   R(22,23)                1.4703         estimate D2E/DX2                !
 ! R25   R(23,24)                0.9748         estimate D2E/DX2                !
 ! A1    A(2,1,3)              119.5642         estimate D2E/DX2                !
 ! A2    A(2,1,18)             119.8717         estimate D2E/DX2                !
 ! A3    A(3,1,18)             120.5637         estimate D2E/DX2                !
 ! A4    A(1,2,6)              120.3532         estimate D2E/DX2                !
 ! A5    A(1,2,7)              119.7317         estimate D2E/DX2                !
 ! A6    A(6,2,7)              119.9152         estimate D2E/DX2                !
 ! A7    A(1,3,4)              120.3141         estimate D2E/DX2                !
 ! A8    A(1,3,5)              120.2806         estimate D2E/DX2                !
 ! A9    A(4,3,5)              119.4053         estimate D2E/DX2                !
 ! A10   A(3,4,8)              120.1382         estimate D2E/DX2                !
 ! A11   A(3,4,9)              119.5671         estimate D2E/DX2                !
 ! A12   A(8,4,9)              120.2948         estimate D2E/DX2                !
 ! A13   A(2,6,8)              119.8646         estimate D2E/DX2                !
 ! A14   A(2,6,10)             120.309          estimate D2E/DX2                !
 ! A15   A(8,6,10)             119.8263         estimate D2E/DX2                !
 ! A16   A(4,8,6)              119.7657         estimate D2E/DX2                !
 ! A17   A(4,8,15)             120.3652         estimate D2E/DX2                !
 ! A18   A(6,8,15)             119.8691         estimate D2E/DX2                !
 ! A19   A(6,10,11)            120.0818         estimate D2E/DX2                !
 ! A20   A(6,10,12)            120.3339         estimate D2E/DX2                !
 ! A21   A(11,10,12)           119.5843         estimate D2E/DX2                !
 ! A22   A(10,11,13)           120.0818         estimate D2E/DX2                !
 ! A23   A(10,11,14)           119.9495         estimate D2E/DX2                !
 ! A24   A(13,11,14)           119.9688         estimate D2E/DX2                !
 ! A25   A(11,13,15)           120.0743         estimate D2E/DX2                !
 ! A26   A(11,13,17)           119.9673         estimate D2E/DX2                !
 ! A27   A(15,13,17)           119.9584         estimate D2E/DX2                !
 ! A28   A(8,15,13)            120.0667         estimate D2E/DX2                !
 ! A29   A(8,15,16)            120.344          estimate D2E/DX2                !
 ! A30   A(13,15,16)           119.5893         estimate D2E/DX2                !
 ! A31   A(1,18,19)            110.7867         estimate D2E/DX2                !
 ! A32   A(1,18,20)            110.0742         estimate D2E/DX2                !
 ! A33   A(1,18,21)            111.1119         estimate D2E/DX2                !
 ! A34   A(19,18,20)           108.5611         estimate D2E/DX2                !
 ! A35   A(19,18,21)           108.1243         estimate D2E/DX2                !
 ! A36   A(20,18,21)           108.0924         estimate D2E/DX2                !
 ! A37   A(22,23,24)            99.3428         estimate D2E/DX2                !
 ! A38   L(18,19,22,7,-1)      184.3722         estimate D2E/DX2                !
 ! A39   L(19,22,23,12,-1)     183.9617         estimate D2E/DX2                !
 ! A40   L(18,19,22,7,-2)      192.7828         estimate D2E/DX2                !
 ! A41   L(19,22,23,12,-2)     191.8575         estimate D2E/DX2                !
 ! D1    D(3,1,2,6)              0.074          estimate D2E/DX2                !
 ! D2    D(3,1,2,7)           -179.9566         estimate D2E/DX2                !
 ! D3    D(18,1,2,6)           179.8332         estimate D2E/DX2                !
 ! D4    D(18,1,2,7)            -0.1975         estimate D2E/DX2                !
 ! D5    D(2,1,3,4)             -0.0989         estimate D2E/DX2                !
 ! D6    D(2,1,3,5)            179.8741         estimate D2E/DX2                !
 ! D7    D(18,1,3,4)          -179.8564         estimate D2E/DX2                !
 ! D8    D(18,1,3,5)             0.1166         estimate D2E/DX2                !
 ! D9    D(2,1,18,19)           50.2746         estimate D2E/DX2                !
 ! D10   D(2,1,18,20)          -69.8061         estimate D2E/DX2                !
 ! D11   D(2,1,18,21)          170.4896         estimate D2E/DX2                !
 ! D12   D(3,1,18,19)         -129.9686         estimate D2E/DX2                !
 ! D13   D(3,1,18,20)          109.9506         estimate D2E/DX2                !
 ! D14   D(3,1,18,21)           -9.7537         estimate D2E/DX2                !
 ! D15   D(1,2,6,8)             -0.0195         estimate D2E/DX2                !
 ! D16   D(1,2,6,10)           179.9991         estimate D2E/DX2                !
 ! D17   D(7,2,6,8)           -179.9888         estimate D2E/DX2                !
 ! D18   D(7,2,6,10)             0.0298         estimate D2E/DX2                !
 ! D19   D(1,3,4,8)              0.0693         estimate D2E/DX2                !
 ! D20   D(1,3,4,9)           -179.9704         estimate D2E/DX2                !
 ! D21   D(5,3,4,8)           -179.904          estimate D2E/DX2                !
 ! D22   D(5,3,4,9)              0.0564         estimate D2E/DX2                !
 ! D23   D(3,4,8,6)             -0.0141         estimate D2E/DX2                !
 ! D24   D(3,4,8,15)           179.9577         estimate D2E/DX2                !
 ! D25   D(9,4,8,6)           -179.9741         estimate D2E/DX2                !
 ! D26   D(9,4,8,15)            -0.0023         estimate D2E/DX2                !
 ! D27   D(2,6,8,4)             -0.0107         estimate D2E/DX2                !
 ! D28   D(2,6,8,15)          -179.9827         estimate D2E/DX2                !
 ! D29   D(10,6,8,4)           179.9708         estimate D2E/DX2                !
 ! D30   D(10,6,8,15)           -0.0011         estimate D2E/DX2                !
 ! D31   D(2,6,10,11)          179.968          estimate D2E/DX2                !
 ! D32   D(2,6,10,12)           -0.0325         estimate D2E/DX2                !
 ! D33   D(8,6,10,11)           -0.0134         estimate D2E/DX2                !
 ! D34   D(8,6,10,12)          179.9861         estimate D2E/DX2                !
 ! D35   D(4,8,15,13)         -179.9583         estimate D2E/DX2                !
 ! D36   D(4,8,15,16)            0.0315         estimate D2E/DX2                !
 ! D37   D(6,8,15,13)            0.0134         estimate D2E/DX2                !
 ! D38   D(6,8,15,16)         -179.9967         estimate D2E/DX2                !
 ! D39   D(6,10,11,13)           0.0157         estimate D2E/DX2                !
 ! D40   D(6,10,11,14)        -179.9914         estimate D2E/DX2                !
 ! D41   D(12,10,11,13)       -179.9838         estimate D2E/DX2                !
 ! D42   D(12,10,11,14)          0.0092         estimate D2E/DX2                !
 ! D43   D(10,11,13,15)         -0.0033         estimate D2E/DX2                !
 ! D44   D(10,11,13,17)        179.9933         estimate D2E/DX2                !
 ! D45   D(14,11,13,15)       -179.9963         estimate D2E/DX2                !
 ! D46   D(14,11,13,17)          0.0003         estimate D2E/DX2                !
 ! D47   D(11,13,15,8)          -0.0113         estimate D2E/DX2                !
 ! D48   D(11,13,15,16)        179.9989         estimate D2E/DX2                !
 ! D49   D(17,13,15,8)         179.9921         estimate D2E/DX2                !
 ! D50   D(17,13,15,16)          0.0022         estimate D2E/DX2                !
 ! D51   D(1,18,23,24)         129.3599         estimate D2E/DX2                !
 ! D52   D(20,18,23,24)       -112.2258         estimate D2E/DX2                !
 ! D53   D(21,18,23,24)         -1.0505         estimate D2E/DX2                !
 --------------------------------------------------------------------------------
 Trust Radius=3.00D-01 FncErr=1.00D-05 GrdErr=1.00D-04 EigMax=2.50D+02 EigMin=1.00D-04
 Number of steps in this run=    144 maximum allowed number of steps=    144.
 GradGradGradGradGradGradGradGradGradGradGradGradGradGradGradGradGradGrad

                          Input orientation:                          
 ---------------------------------------------------------------------
 Center     Atomic      Atomic             Coordinates (Angstroms)
 Number     Number       Type             X           Y           Z
 ---------------------------------------------------------------------
      1          6           0       -8.267980   -0.037340   -0.522890
      2          6           0       -7.269370    0.938150   -0.536560
      3          6           0       -7.939650   -1.354860   -0.197240
      4          6           0       -6.624180   -1.696410    0.110390
      5          1           0       -8.708660   -2.123650   -0.181030
      6          6           0       -5.950340    0.601520   -0.228730
      7          1           0       -7.522350    1.965990   -0.789290
      8          6           0       -5.625830   -0.721950    0.096220
      9          1           0       -6.381940   -2.726420    0.361850
     10          6           0       -4.952460    1.577740   -0.242700
     11          6           0       -3.636940    1.236460    0.066120
     12          1           0       -5.195140    2.607740   -0.494030
     13          6           0       -3.314370   -0.080100    0.389280
     14          1           0       -2.861520    1.998490    0.054720
     15          6           0       -4.306590   -1.058690    0.404490
     16          1           0       -4.046030   -2.083760    0.657800
     17          1           0       -2.287510   -0.344290    0.629780
     18          6           0       -9.701310    0.342070   -0.856150
     19          1           0       -9.745640    0.909200   -1.791550
     20          1           0      -10.122290    0.956590   -0.056460
     21          1           0      -10.327920   -0.546200   -0.967170
     22          8           0       -9.991740    1.591040   -2.622670
     23          8           0      -10.526050    2.601950   -3.547060
     24          1           0      -11.197530    2.061200   -4.002020
 ---------------------------------------------------------------------
                    Distance matrix (angstroms):
                    1          2          3          4          5
     1  C    0.000000
     2  C    1.396062   0.000000
     3  C    1.396319   2.412946   0.000000
     4  C    2.419842   2.788498   1.393468   0.000000
     5  H    2.159573   3.401849   1.087510   2.147677   0.000000
     6  C    2.422009   1.395679   2.790299   2.418583   3.877777
     7  H    2.154127   1.088268   3.398927   3.876765   4.301449
     8  C    2.798740   2.420241   2.416704   1.395162   3.397863
     9  H    3.401627   3.876048   2.149469   1.087581   2.464077
    10  C    3.698603   2.421467   4.186348   3.693153   5.273815
    11  C    4.839011   3.694152   5.029673   4.186561   6.088823
    12  H    4.054581   2.663038   4.829350   4.575280   5.901597
    13  C    5.037076   4.187605   4.833449   3.693925   5.796526
    14  H    5.805863   4.571988   6.090636   5.273803   7.157979
    15  C    4.194735   3.694727   3.694445   2.421653   4.566749
    16  H    4.838050   4.576937   4.052489   2.663936   4.737652
    17  H    6.098269   5.274839   5.801026   4.572166   6.712280
    18  C    1.519687   2.524239   2.533215   3.815538   2.742429
    19  H    2.165390   2.776284   3.305963   4.488885   3.587099
    20  H    2.154975   2.893093   3.182222   4.393520   3.391422
    21  H    2.167874   3.426871   2.636391   4.025147   2.393401
    22  O    3.167341   3.491335   4.332679   5.442188   4.626751
    23  O    4.605468   4.736803   5.793712   6.861299   6.079832
    24  H    5.009040   5.357340   6.062969   7.207432   6.189298
                    6          7          8          9         10
     6  C    0.000000
     7  H    2.155741   0.000000
     8  C    1.400883   3.406749   0.000000
     9  H    3.407381   4.964310   2.158741   0.000000
    10  C    1.396053   2.655905   2.420097   4.575444   0.000000
    11  C    2.417003   4.044793   2.791408   4.829793   1.393713
    12  H    2.160007   2.432062   3.408918   5.531210   1.087640
    13  C    2.791931   4.825205   2.416755   4.051388   2.414782
    14  H    3.401864   4.736744   3.878650   5.900208   2.153490
    15  C    2.420574   4.573282   1.396001   2.662747   2.790478
    16  H    3.409261   5.529859   2.160015   2.440712   3.878028
    17  H    3.879165   5.895312   3.401719   4.744543   3.399615
    18  C    3.811922   2.718355   4.318412   4.681599   4.945177
    19  H    4.115990   2.657884   4.816343   5.400865   5.081383
    20  H    4.190575   2.883681   4.801975   5.265906   5.210341
    21  H    4.585386   3.770141   4.824037   4.700044   5.825079
    22  O    4.800314   3.098347   5.639455   6.370124   5.573040
    23  O    5.995845   4.126979   6.952263   7.800305   6.559932
    24  H    6.625812   4.882381   7.455557   8.071838   7.305280
                   11         12         13         14         15
    11  C    0.000000
    12  H    2.149922   0.000000
    13  C    1.393490   3.397354   0.000000
    14  H    1.087242   2.473478   2.153495   0.000000
    15  C    2.414672   3.878088   1.393689   3.399546   0.000000
    16  H    3.397249   4.965616   2.149903   4.293196   1.087578
    17  H    2.153473   4.293220   1.087234   2.479677   2.153557
    18  C    6.198960   5.056675   6.520915   7.096206   5.714398
    19  H    6.393297   5.027489   6.862650   7.210158   6.186958
    20  H    6.492543   5.214841   6.900810   7.335986   6.172212
    21  H    7.001056   6.042899   7.158707   7.954045   6.196815
    22  O    6.909327   5.345293   7.513443   7.627219   6.964603
    23  O    7.898067   6.143259   8.642713   8.490112   8.227801
    24  H    8.625108   6.973764   9.274314   9.270930   8.754205
                   16         17         18         19         20
    16  H    0.000000
    17  H    2.473648   0.000000
    18  C    6.337104   7.592332   0.000000
    19  H    6.887865   7.940893   1.094794   0.000000
    20  H    6.831898   7.971637   1.092869   1.776133   0.000000
    21  H    6.668340   8.199952   1.092698   1.771113   1.769196
    22  O    7.721211   8.583653   2.182858   1.102829   2.646697
    23  O    9.034787   9.695353   3.609467   2.560519   3.880015
    24  H    9.488865  10.326103   3.884660   2.884660   4.236006
                   21         22         23         24
    21  H    0.000000
    22  O    2.724242   0.000000
    23  O    4.075038   1.470348   0.000000
    24  H    4.094517   1.891451   0.974825   0.000000
 Stoichiometry    C11H11O2(2)
 Framework group  C1[X(C11H11O2)]
 Deg. of freedom    66
 Full point group                 C1      NOp   1
 Largest Abelian subgroup         C1      NOp   1
 Largest concise Abelian subgroup C1      NOp   1
                         Standard orientation:                         
 ---------------------------------------------------------------------
 Center     Atomic      Atomic             Coordinates (Angstroms)
 Number     Number       Type             X           Y           Z
 ---------------------------------------------------------------------
      1          6           0        0.971024    0.909579    0.343460
      2          6           0        0.336965   -0.328373    0.463596
      3          6           0        0.226650    2.032012   -0.024993
      4          6           0       -1.139803    1.919151   -0.273635
      5          1           0        0.708303    3.002400   -0.120043
      6          6           0       -1.031495   -0.446831    0.216206
      7          1           0        0.914358   -1.204831    0.751289
      8          6           0       -1.773682    0.682045   -0.154292
      9          1           0       -1.707760    2.801233   -0.560323
     10          6           0       -1.664611   -1.685231    0.336597
     11          6           0       -3.031526   -1.797987    0.089081
     12          1           0       -1.096323   -2.567096    0.623517
     13          6           0       -3.769584   -0.674939   -0.279495
     14          1           0       -3.522434   -2.763475    0.183618
     15          6           0       -3.142534    0.563737   -0.401409
     16          1           0       -3.726153    1.435048   -0.689559
     17          1           0       -4.835794   -0.765044   -0.472248
     18          6           0        2.460898    1.026804    0.619113
     19          1           0        3.019585    0.265444    0.065241
     20          1           0        2.656520    0.894345    1.686141
     21          1           0        2.839739    2.008306    0.323946
     22          8           0        3.741497   -0.487074   -0.293635
     23          8           0        4.835633   -1.444531   -0.512869
     24          1           0        5.479108   -0.853298   -0.944922
 ---------------------------------------------------------------------
 Rotational constants (GHZ):           1.6195930           0.3831353           0.3200875
 Standard basis: 6-311+G(2df,2p) (5D, 7F)
 There are   606 symmetry adapted cartesian basis functions of A   symmetry.
 There are   541 symmetry adapted basis functions of A   symmetry.
   541 basis functions,   797 primitive gaussians,   606 cartesian basis functions
    47 alpha electrons       46 beta electrons
       nuclear repulsion energy       710.3879773510 Hartrees.
 NAtoms=   24 NActive=   24 NUniq=   24 SFac= 1.00D+00 NAtFMM=   60 NAOKFM=F Big=F
 Integral buffers will be    131072 words long.
 Raffenetti 2 integral format.
 Two-electron integral symmetry is turned on.
 One-electron integrals computed using PRISM.
 NBasis=   541 RedAO= T EigKep=  1.42D-06  NBF=   541
 NBsUse=   538 1.00D-06 EigRej=  9.24D-07 NBFU=   538
 ExpMin= 4.38D-02 ExpMax= 8.59D+03 ExpMxC= 1.30D+03 IAcc=2 IRadAn=         4 AccDes= 0.00D+00
 Harris functional with IExCor= 1009 and IRadAn=       4 diagonalized for initial guess.
 HarFok:  IExCor= 1009 AccDes= 0.00D+00 IRadAn=         4 IDoV= 1 UseB2=F ITyADJ=14
 ICtDFT=  3500011 ScaDFX=  1.000000  1.000000  1.000000  1.000000
 FoFCou: FMM=F IPFlag=           0 FMFlag=      100000 FMFlg1=           0
         NFxFlg=           0 DoJE=T BraDBF=F KetDBF=T FulRan=T
         wScrn=  0.000000 ICntrl=       500 IOpCl=  0 I1Cent=   200000004 NGrid=           0
         NMat0=    1 NMatS0=      1 NMatT0=    0 NMatD0=    1 NMtDS0=    0 NMtDT0=    0
 Petite list used in FoFCou.
 Initial guess <Sx>= 0.0000 <Sy>= 0.0000 <Sz>= 0.5000 <S**2>= 0.7500 S= 0.5000
 Requested convergence on RMS density matrix=1.00D-08 within 128 cycles.
 Requested convergence on MAX density matrix=1.00D-06.
 Requested convergence on             energy=1.00D-06.
 No special actions if energy rises.
 Restarting incremental Fock formation.
 SCF Done:  E(UM062X) =  -575.945978965     A.U. after   26 cycles
            NFock= 26  Conv=0.49D-08     -V/T= 2.0033
 <Sx>= 0.0000 <Sy>= 0.0000 <Sz>= 0.5000 <S**2>= 0.7584 S= 0.5042
 <L.S>= 0.000000000000E+00
 Annihilation of the first spin contaminant:
 S**2 before annihilation     0.7584,   after     0.7500

 **********************************************************************

            Population analysis using the SCF density.

 **********************************************************************

 Orbital symmetries:
 Alpha Orbitals:
       Occupied  (A) (A) (A) (A) (A) (A) (A) (A) (A) (A) (A) (A)
                 (A) (A) (A) (A) (A) (A) (A) (A) (A) (A) (A) (A)
                 (A) (A) (A) (A) (A) (A) (A) (A) (A) (A) (A) (A)
                 (A) (A) (A) (A) (A) (A) (A) (A) (A) (A) (A)
       Virtual   (A) (A) (A) (A) (A) (A) (A) (A) (A) (A) (A) (A)
                 (A) (A) (A) (A) (A) (A) (A) (A) (A) (A) (A) (A)
                 (A) (A) (A) (A) (A) (A) (A) (A) (A) (A) (A) (A)
                 (A) (A) (A) (A) (A) (A) (A) (A) (A) (A) (A) (A)
                 (A) (A) (A) (A) (A) (A) (A) (A) (A) (A) (A) (A)
                 (A) (A) (A) (A) (A) (A) (A) (A) (A) (A) (A) (A)
                 (A) (A) (A) (A) (A) (A) (A) (A) (A) (A) (A) (A)
                 (A) (A) (A) (A) (A) (A) (A) (A) (A) (A) (A) (A)
                 (A) (A) (A) (A) (A) (A) (A) (A) (A) (A) (A) (A)
                 (A) (A) (A) (A) (A) (A) (A) (A) (A) (A) (A) (A)
                 (A) (A) (A) (A) (A) (A) (A) (A) (A) (A) (A) (A)
                 (A) (A) (A) (A) (A) (A) (A) (A) (A) (A) (A) (A)
                 (A) (A) (A) (A) (A) (A) (A) (A) (A) (A) (A) (A)
                 (A) (A) (A) (A) (A) (A) (A) (A) (A) (A) (A) (A)
                 (A) (A) (A) (A) (A) (A) (A) (A) (A) (A) (A) (A)
                 (A) (A) (A) (A) (A) (A) (A) (A) (A) (A) (A) (A)
                 (A) (A) (A) (A) (A) (A) (A) (A) (A) (A) (A) (A)
                 (A) (A) (A) (A) (A) (A) (A) (A) (A) (A) (A) (A)
                 (A) (A) (A) (A) (A) (A) (A) (A) (A) (A) (A) (A)
                 (A) (A) (A) (A) (A) (A) (A) (A) (A) (A) (A) (A)
                 (A) (A) (A) (A) (A) (A) (A) (A) (A) (A) (A) (A)
                 (A) (A) (A) (A) (A) (A) (A) (A) (A) (A) (A) (A)
                 (A) (A) (A) (A) (A) (A) (A) (A) (A) (A) (A) (A)
                 (A) (A) (A) (A) (A) (A) (A) (A) (A) (A) (A) (A)
                 (A) (A) (A) (A) (A) (A) (A) (A) (A) (A) (A) (A)
                 (A) (A) (A) (A) (A) (A) (A) (A) (A) (A) (A) (A)
                 (A) (A) (A) (A) (A) (A) (A) (A) (A) (A) (A) (A)
                 (A) (A) (A) (A) (A) (A) (A) (A) (A) (A) (A) (A)
                 (A) (A) (A) (A) (A) (A) (A) (A) (A) (A) (A) (A)
                 (A) (A) (A) (A) (A) (A) (A) (A) (A) (A) (A) (A)
                 (A) (A) (A) (A) (A) (A) (A) (A) (A) (A) (A) (A)
                 (A) (A) (A) (A) (A) (A) (A) (A) (A) (A) (A) (A)
                 (A) (A) (A) (A) (A) (A) (A) (A) (A) (A) (A) (A)
                 (A) (A) (A) (A) (A) (A) (A) (A) (A) (A) (A) (A)
                 (A) (A) (A) (A) (A) (A) (A) (A) (A) (A) (A) (A)
                 (A) (A) (A) (A) (A) (A) (A) (A) (A) (A) (A) (A)
                 (A) (A) (A) (A) (A) (A) (A) (A) (A) (A) (A) (A)
                 (A) (A) (A) (A) (A) (A) (A) (A) (A) (A) (A) (A)
                 (A) (A) (A) (A) (A) (A) (A) (A) (A) (A) (A) (A)
                 (A) (A) (A) (A) (A) (A) (A) (A) (A) (A) (A) (A)
                 (A) (A) (A) (A) (A) (A) (A) (A) (A) (A) (A)
 Beta  Orbitals:
       Occupied  (A) (A) (A) (A) (A) (A) (A) (A) (A) (A) (A) (A)
                 (A) (A) (A) (A) (A) (A) (A) (A) (A) (A) (A) (A)
                 (A) (A) (A) (A) (A) (A) (A) (A) (A) (A) (A) (A)
                 (A) (A) (A) (A) (A) (A) (A) (A) (A) (A)
       Virtual   (A) (A) (A) (A) (A) (A) (A) (A) (A) (A) (A) (A)
                 (A) (A) (A) (A) (A) (A) (A) (A) (A) (A) (A) (A)
                 (A) (A) (A) (A) (A) (A) (A) (A) (A) (A) (A) (A)
                 (A) (A) (A) (A) (A) (A) (A) (A) (A) (A) (A) (A)
                 (A) (A) (A) (A) (A) (A) (A) (A) (A) (A) (A) (A)
                 (A) (A) (A) (A) (A) (A) (A) (A) (A) (A) (A) (A)
                 (A) (A) (A) (A) (A) (A) (A) (A) (A) (A) (A) (A)
                 (A) (A) (A) (A) (A) (A) (A) (A) (A) (A) (A) (A)
                 (A) (A) (A) (A) (A) (A) (A) (A) (A) (A) (A) (A)
                 (A) (A) (A) (A) (A) (A) (A) (A) (A) (A) (A) (A)
                 (A) (A) (A) (A) (A) (A) (A) (A) (A) (A) (A) (A)
                 (A) (A) (A) (A) (A) (A) (A) (A) (A) (A) (A) (A)
                 (A) (A) (A) (A) (A) (A) (A) (A) (A) (A) (A) (A)
                 (A) (A) (A) (A) (A) (A) (A) (A) (A) (A) (A) (A)
                 (A) (A) (A) (A) (A) (A) (A) (A) (A) (A) (A) (A)
                 (A) (A) (A) (A) (A) (A) (A) (A) (A) (A) (A) (A)
                 (A) (A) (A) (A) (A) (A) (A) (A) (A) (A) (A) (A)
                 (A) (A) (A) (A) (A) (A) (A) (A) (A) (A) (A) (A)
                 (A) (A) (A) (A) (A) (A) (A) (A) (A) (A) (A) (A)
                 (A) (A) (A) (A) (A) (A) (A) (A) (A) (A) (A) (A)
                 (A) (A) (A) (A) (A) (A) (A) (A) (A) (A) (A) (A)
                 (A) (A) (A) (A) (A) (A) (A) (A) (A) (A) (A) (A)
                 (A) (A) (A) (A) (A) (A) (A) (A) (A) (A) (A) (A)
                 (A) (A) (A) (A) (A) (A) (A) (A) (A) (A) (A) (A)
                 (A) (A) (A) (A) (A) (A) (A) (A) (A) (A) (A) (A)
                 (A) (A) (A) (A) (A) (A) (A) (A) (A) (A) (A) (A)
                 (A) (A) (A) (A) (A) (A) (A) (A) (A) (A) (A) (A)
                 (A) (A) (A) (A) (A) (A) (A) (A) (A) (A) (A) (A)
                 (A) (A) (A) (A) (A) (A) (A) (A) (A) (A) (A) (A)
                 (A) (A) (A) (A) (A) (A) (A) (A) (A) (A) (A) (A)
                 (A) (A) (A) (A) (A) (A) (A) (A) (A) (A) (A) (A)
                 (A) (A) (A) (A) (A) (A) (A) (A) (A) (A) (A) (A)
                 (A) (A) (A) (A) (A) (A) (A) (A) (A) (A) (A) (A)
                 (A) (A) (A) (A) (A) (A) (A) (A) (A) (A) (A) (A)
                 (A) (A) (A) (A) (A) (A) (A) (A) (A) (A) (A) (A)
                 (A) (A) (A) (A) (A) (A) (A) (A) (A) (A) (A) (A)
                 (A) (A) (A) (A) (A) (A) (A) (A) (A) (A) (A) (A)
                 (A) (A) (A) (A) (A) (A) (A) (A) (A) (A) (A) (A)
                 (A) (A) (A) (A) (A) (A) (A) (A) (A) (A) (A) (A)
                 (A) (A) (A) (A) (A) (A) (A) (A) (A) (A) (A) (A)
                 (A) (A) (A) (A) (A) (A) (A) (A) (A) (A) (A) (A)
 The electronic state is 2-A.
 Alpha  occ. eigenvalues --  -19.73167 -19.72958 -10.55272 -10.54491 -10.54432
 Alpha  occ. eigenvalues --  -10.54373 -10.54317 -10.54269 -10.54202 -10.54198
 Alpha  occ. eigenvalues --  -10.54155 -10.53947 -10.52473  -1.26959  -1.06614
 Alpha  occ. eigenvalues --   -0.98870  -0.92929  -0.87819  -0.85723  -0.81610
 Alpha  occ. eigenvalues --   -0.78039  -0.71267  -0.68761  -0.68401  -0.65082
 Alpha  occ. eigenvalues --   -0.59181  -0.58843  -0.57890  -0.56294  -0.54848
 Alpha  occ. eigenvalues --   -0.51892  -0.51204  -0.48906  -0.48113  -0.47375
 Alpha  occ. eigenvalues --   -0.45927  -0.45174  -0.43577  -0.42677  -0.41909
 Alpha  occ. eigenvalues --   -0.40076  -0.39018  -0.38648  -0.36256  -0.34490
 Alpha  occ. eigenvalues --   -0.29395  -0.25769
 Alpha virt. eigenvalues --   -0.02257   0.00591   0.01378   0.01840   0.02090
 Alpha virt. eigenvalues --    0.02541   0.03322   0.03702   0.04207   0.05580
 Alpha virt. eigenvalues --    0.05655   0.06469   0.06870   0.07278   0.07764
 Alpha virt. eigenvalues --    0.08574   0.09061   0.09369   0.10250   0.11373
 Alpha virt. eigenvalues --    0.11944   0.12137   0.12790   0.13535   0.14334
 Alpha virt. eigenvalues --    0.14423   0.14934   0.15137   0.15897   0.16410
 Alpha virt. eigenvalues --    0.16740   0.17288   0.17935   0.18723   0.19011
 Alpha virt. eigenvalues --    0.19324   0.19644   0.19842   0.20225   0.20622
 Alpha virt. eigenvalues --    0.21333   0.21739   0.22539   0.23027   0.23311
 Alpha virt. eigenvalues --    0.23838   0.24044   0.24102   0.24967   0.25652
 Alpha virt. eigenvalues --    0.26229   0.26917   0.27108   0.27663   0.28125
 Alpha virt. eigenvalues --    0.28156   0.29099   0.29328   0.30189   0.30875
 Alpha virt. eigenvalues --    0.32291   0.32925   0.33201   0.34112   0.34450
 Alpha virt. eigenvalues --    0.35266   0.35877   0.36671   0.37637   0.38734
 Alpha virt. eigenvalues --    0.40386   0.41069   0.42941   0.44168   0.47106
 Alpha virt. eigenvalues --    0.47774   0.49411   0.50984   0.51682   0.51797
 Alpha virt. eigenvalues --    0.52559   0.53140   0.53744   0.54939   0.55676
 Alpha virt. eigenvalues --    0.56266   0.56539   0.57110   0.57444   0.57754
 Alpha virt. eigenvalues --    0.58808   0.59461   0.60350   0.60614   0.60736
 Alpha virt. eigenvalues --    0.61684   0.62133   0.64471   0.65597   0.65860
 Alpha virt. eigenvalues --    0.66307   0.67108   0.67232   0.68200   0.68506
 Alpha virt. eigenvalues --    0.68657   0.68948   0.69914   0.70270   0.70457
 Alpha virt. eigenvalues --    0.71493   0.71962   0.73217   0.73581   0.74139
 Alpha virt. eigenvalues --    0.74394   0.75975   0.76189   0.76506   0.76915
 Alpha virt. eigenvalues --    0.78235   0.78500   0.79412   0.79581   0.81626
 Alpha virt. eigenvalues --    0.82485   0.83623   0.83862   0.84867   0.85895
 Alpha virt. eigenvalues --    0.87255   0.88701   0.89476   0.89862   0.90468
 Alpha virt. eigenvalues --    0.91523   0.93336   0.94113   0.95486   0.96971
 Alpha virt. eigenvalues --    0.97410   0.99046   0.99706   1.00276   1.02007
 Alpha virt. eigenvalues --    1.03293   1.03874   1.05177   1.05227   1.07142
 Alpha virt. eigenvalues --    1.08152   1.08625   1.09907   1.10449   1.11610
 Alpha virt. eigenvalues --    1.12166   1.13007   1.14135   1.14961   1.16026
 Alpha virt. eigenvalues --    1.16726   1.18226   1.18763   1.19368   1.20410
 Alpha virt. eigenvalues --    1.20689   1.22180   1.24120   1.24738   1.26591
 Alpha virt. eigenvalues --    1.28241   1.28770   1.29857   1.30694   1.31212
 Alpha virt. eigenvalues --    1.32341   1.32829   1.33398   1.34907   1.35387
 Alpha virt. eigenvalues --    1.35915   1.37367   1.37606   1.37848   1.38287
 Alpha virt. eigenvalues --    1.39963   1.40505   1.41140   1.42588   1.42776
 Alpha virt. eigenvalues --    1.44031   1.46351   1.46571   1.47881   1.48723
 Alpha virt. eigenvalues --    1.49480   1.50105   1.50573   1.51566   1.52248
 Alpha virt. eigenvalues --    1.54166   1.54791   1.56079   1.57608   1.58950
 Alpha virt. eigenvalues --    1.61454   1.63424   1.66864   1.68388   1.70645
 Alpha virt. eigenvalues --    1.71884   1.74358   1.74961   1.75987   1.76332
 Alpha virt. eigenvalues --    1.77699   1.78632   1.79971   1.81198   1.82259
 Alpha virt. eigenvalues --    1.82420   1.84998   1.90210   1.91564   1.93298
 Alpha virt. eigenvalues --    1.94703   2.00758   2.03816   2.04165   2.07923
 Alpha virt. eigenvalues --    2.11813   2.14518   2.19250   2.22222   2.27251
 Alpha virt. eigenvalues --    2.34201   2.35402   2.39977   2.48221   2.52571
 Alpha virt. eigenvalues --    2.54238   2.55168   2.56212   2.59244   2.62321
 Alpha virt. eigenvalues --    2.64739   2.65490   2.66723   2.67590   2.69820
 Alpha virt. eigenvalues --    2.71508   2.73792   2.75108   2.75158   2.75872
 Alpha virt. eigenvalues --    2.76550   2.77237   2.78215   2.78657   2.80047
 Alpha virt. eigenvalues --    2.80917   2.82464   2.83304   2.84043   2.84485
 Alpha virt. eigenvalues --    2.84792   2.85715   2.86441   2.86840   2.87958
 Alpha virt. eigenvalues --    2.87981   2.89142   2.89195   2.90007   2.91314
 Alpha virt. eigenvalues --    2.91869   2.92026   2.95289   2.96250   2.97362
 Alpha virt. eigenvalues --    2.99324   2.99934   3.02229   3.03087   3.06221
 Alpha virt. eigenvalues --    3.08264   3.09863   3.10298   3.11544   3.12100
 Alpha virt. eigenvalues --    3.13392   3.14679   3.15158   3.16133   3.16836
 Alpha virt. eigenvalues --    3.17230   3.18525   3.19384   3.19771   3.21085
 Alpha virt. eigenvalues --    3.21781   3.23091   3.23893   3.24149   3.24924
 Alpha virt. eigenvalues --    3.25478   3.27324   3.28289   3.29028   3.29863
 Alpha virt. eigenvalues --    3.31458   3.32776   3.33279   3.34248   3.35191
 Alpha virt. eigenvalues --    3.36375   3.38934   3.40740   3.41285   3.42392
 Alpha virt. eigenvalues --    3.43276   3.43695   3.45360   3.46809   3.47137
 Alpha virt. eigenvalues --    3.48863   3.49145   3.50868   3.51419   3.52416
 Alpha virt. eigenvalues --    3.53746   3.53965   3.55688   3.56187   3.57158
 Alpha virt. eigenvalues --    3.58593   3.59555   3.61401   3.61896   3.64787
 Alpha virt. eigenvalues --    3.66437   3.68319   3.68598   3.69709   3.70620
 Alpha virt. eigenvalues --    3.71855   3.74130   3.75256   3.76352   3.77097
 Alpha virt. eigenvalues --    3.77742   3.79045   3.79465   3.80242   3.82723
 Alpha virt. eigenvalues --    3.83158   3.84859   3.86166   3.88695   3.90743
 Alpha virt. eigenvalues --    3.90966   3.93169   3.94962   3.97576   3.98485
 Alpha virt. eigenvalues --    3.99695   4.00179   4.04213   4.05485   4.06849
 Alpha virt. eigenvalues --    4.07537   4.07857   4.08376   4.10688   4.11122
 Alpha virt. eigenvalues --    4.12392   4.15065   4.16162   4.16516   4.17414
 Alpha virt. eigenvalues --    4.20501   4.21752   4.24095   4.26235   4.27389
 Alpha virt. eigenvalues --    4.28554   4.30087   4.30878   4.32348   4.32766
 Alpha virt. eigenvalues --    4.34681   4.37086   4.37654   4.38326   4.39064
 Alpha virt. eigenvalues --    4.40964   4.41908   4.42316   4.43782   4.45717
 Alpha virt. eigenvalues --    4.46668   4.48509   4.50437   4.51030   4.52427
 Alpha virt. eigenvalues --    4.53746   4.54196   4.54637   4.56407   4.58352
 Alpha virt. eigenvalues --    4.59250   4.61301   4.64251   4.67115   4.70865
 Alpha virt. eigenvalues --    4.74069   4.75827   4.77961   4.78607   4.79738
 Alpha virt. eigenvalues --    4.82389   4.86279   4.88002   4.90128   4.95026
 Alpha virt. eigenvalues --    4.96891   4.97302   5.00159   5.00546   5.00735
 Alpha virt. eigenvalues --    5.02688   5.05294   5.08776   5.11409   5.13067
 Alpha virt. eigenvalues --    5.13657   5.14965   5.18899   5.20294   5.21145
 Alpha virt. eigenvalues --    5.24796   5.25312   5.26641   5.30931   5.36978
 Alpha virt. eigenvalues --    5.45744   5.45954   5.51448   5.52765   5.56649
 Alpha virt. eigenvalues --    5.60004   5.63761   5.67975   5.71300   5.72893
 Alpha virt. eigenvalues --    5.74036   5.77515   5.83807   5.90683   5.94730
 Alpha virt. eigenvalues --    5.98377   6.02185   6.15333   6.20076   6.46509
 Alpha virt. eigenvalues --    6.57287   6.65354   6.69717   6.84116   6.87526
 Alpha virt. eigenvalues --    6.93232   6.99097   7.18316   7.29386   7.34565
 Alpha virt. eigenvalues --    7.43466   7.87763   8.12999  23.90298  24.22626
 Alpha virt. eigenvalues --   24.56773  24.59558  24.64315  24.65866  24.69433
 Alpha virt. eigenvalues --   24.80447  24.87785  25.09138  25.28611  49.97059
 Alpha virt. eigenvalues --   49.98019
  Beta  occ. eigenvalues --  -19.72534 -19.71608 -10.55261 -10.54492 -10.54432
  Beta  occ. eigenvalues --  -10.54373 -10.54317 -10.54269 -10.54199 -10.54190
  Beta  occ. eigenvalues --  -10.54152 -10.53934 -10.52383  -1.23641  -1.02264
  Beta  occ. eigenvalues --   -0.98828  -0.92834  -0.87761  -0.85543  -0.81470
  Beta  occ. eigenvalues --   -0.77556  -0.71089  -0.68391  -0.68310  -0.63963
  Beta  occ. eigenvalues --   -0.58968  -0.57900  -0.57548  -0.54900  -0.51870
  Beta  occ. eigenvalues --   -0.51159  -0.48874  -0.48100  -0.47289  -0.46299
  Beta  occ. eigenvalues --   -0.45598  -0.44853  -0.43363  -0.40349  -0.39952
  Beta  occ. eigenvalues --   -0.38914  -0.38637  -0.36049  -0.34407  -0.29403
  Beta  occ. eigenvalues --   -0.25765
  Beta virt. eigenvalues --   -0.12268  -0.02119   0.01084   0.01443   0.01964
  Beta virt. eigenvalues --    0.02127   0.02892   0.03381   0.03835   0.04375
  Beta virt. eigenvalues --    0.05676   0.05901   0.06659   0.07274   0.07311
  Beta virt. eigenvalues --    0.07814   0.08647   0.09366   0.09564   0.10388
  Beta virt. eigenvalues --    0.11480   0.12049   0.12185   0.12844   0.13605
  Beta virt. eigenvalues --    0.14420   0.14551   0.14987   0.15274   0.16018
  Beta virt. eigenvalues --    0.16527   0.16920   0.17372   0.17993   0.18808
  Beta virt. eigenvalues --    0.19153   0.19364   0.19671   0.19991   0.20283
  Beta virt. eigenvalues --    0.20692   0.21369   0.21829   0.22583   0.23118
  Beta virt. eigenvalues --    0.23403   0.23931   0.24092   0.24164   0.24992
  Beta virt. eigenvalues --    0.25779   0.26250   0.27012   0.27164   0.27728
  Beta virt. eigenvalues --    0.28177   0.28221   0.29163   0.29374   0.30281
  Beta virt. eigenvalues --    0.31308   0.32475   0.33050   0.33318   0.34159
  Beta virt. eigenvalues --    0.34546   0.35637   0.36100   0.36713   0.37913
  Beta virt. eigenvalues --    0.38782   0.40548   0.41133   0.43039   0.44272
  Beta virt. eigenvalues --    0.47219   0.47874   0.49660   0.51089   0.51707
  Beta virt. eigenvalues --    0.51852   0.52636   0.53202   0.53775   0.54991
  Beta virt. eigenvalues --    0.55704   0.56301   0.56558   0.57227   0.57472
  Beta virt. eigenvalues --    0.57785   0.58818   0.59504   0.60392   0.60662
  Beta virt. eigenvalues --    0.60755   0.61714   0.62266   0.64559   0.65638
  Beta virt. eigenvalues --    0.65899   0.66348   0.67148   0.67258   0.68239
  Beta virt. eigenvalues --    0.68525   0.68724   0.68992   0.69946   0.70308
  Beta virt. eigenvalues --    0.70510   0.71654   0.72096   0.73238   0.73608
  Beta virt. eigenvalues --    0.74160   0.74413   0.75989   0.76311   0.76552
  Beta virt. eigenvalues --    0.76969   0.78281   0.78559   0.79461   0.79883
  Beta virt. eigenvalues --    0.81661   0.82585   0.83676   0.83924   0.84875
  Beta virt. eigenvalues --    0.85944   0.87314   0.88751   0.89546   0.89944
  Beta virt. eigenvalues --    0.90517   0.91585   0.93385   0.94151   0.95645
  Beta virt. eigenvalues --    0.97174   0.97615   0.99162   0.99786   1.00352
  Beta virt. eigenvalues --    1.02724   1.03467   1.04151   1.05202   1.06633
  Beta virt. eigenvalues --    1.07279   1.08367   1.08765   1.10027   1.10776
  Beta virt. eigenvalues --    1.11828   1.12560   1.13047   1.14518   1.15283
  Beta virt. eigenvalues --    1.16396   1.17180   1.18319   1.18832   1.19874
  Beta virt. eigenvalues --    1.20416   1.20969   1.22390   1.24405   1.24861
  Beta virt. eigenvalues --    1.26684   1.28344   1.29093   1.30028   1.30730
  Beta virt. eigenvalues --    1.31306   1.32447   1.32871   1.33469   1.35033
  Beta virt. eigenvalues --    1.35437   1.35960   1.37399   1.37671   1.38046
  Beta virt. eigenvalues --    1.38465   1.40006   1.40543   1.41193   1.42824
  Beta virt. eigenvalues --    1.42893   1.44216   1.46525   1.46731   1.47962
  Beta virt. eigenvalues --    1.48873   1.50043   1.50174   1.50699   1.52058
  Beta virt. eigenvalues --    1.52577   1.54676   1.55421   1.56607   1.57901
  Beta virt. eigenvalues --    1.59605   1.62034   1.63854   1.67373   1.68490
  Beta virt. eigenvalues --    1.70673   1.72073   1.74420   1.74980   1.76030
  Beta virt. eigenvalues --    1.76470   1.77863   1.78666   1.80306   1.81643
  Beta virt. eigenvalues --    1.82434   1.82955   1.85135   1.90228   1.91589
  Beta virt. eigenvalues --    1.93339   1.94741   2.00816   2.03840   2.04377
  Beta virt. eigenvalues --    2.08684   2.11843   2.14642   2.19286   2.22568
  Beta virt. eigenvalues --    2.27903   2.35337   2.35918   2.40057   2.48346
  Beta virt. eigenvalues --    2.52643   2.54291   2.55207   2.56337   2.59630
  Beta virt. eigenvalues --    2.62365   2.64783   2.65495   2.66753   2.67666
  Beta virt. eigenvalues --    2.69796   2.71540   2.73818   2.75143   2.75197
  Beta virt. eigenvalues --    2.75933   2.76638   2.77267   2.78253   2.78747
  Beta virt. eigenvalues --    2.80116   2.80939   2.82600   2.83343   2.84076
  Beta virt. eigenvalues --    2.84544   2.84814   2.85762   2.86479   2.86888
  Beta virt. eigenvalues --    2.87974   2.88024   2.89200   2.89255   2.90065
  Beta virt. eigenvalues --    2.91340   2.91918   2.92071   2.95321   2.96317
  Beta virt. eigenvalues --    2.97419   2.99420   2.99963   3.02236   3.03117
  Beta virt. eigenvalues --    3.06260   3.08354   3.09913   3.10354   3.11576
  Beta virt. eigenvalues --    3.12155   3.13415   3.14678   3.15189   3.16170
  Beta virt. eigenvalues --    3.16874   3.17232   3.18566   3.19427   3.19802
  Beta virt. eigenvalues --    3.21130   3.21778   3.23097   3.23926   3.24188
  Beta virt. eigenvalues --    3.24964   3.25535   3.27400   3.28332   3.29081
  Beta virt. eigenvalues --    3.29880   3.31461   3.32776   3.33303   3.34287
  Beta virt. eigenvalues --    3.35223   3.36412   3.38978   3.40791   3.41363
  Beta virt. eigenvalues --    3.42434   3.43279   3.43751   3.45394   3.46841
  Beta virt. eigenvalues --    3.47209   3.48887   3.49194   3.50948   3.51459
  Beta virt. eigenvalues --    3.52483   3.53825   3.54060   3.55707   3.56284
  Beta virt. eigenvalues --    3.57305   3.59118   3.59635   3.61485   3.62063
  Beta virt. eigenvalues --    3.64837   3.66529   3.68408   3.68678   3.69827
  Beta virt. eigenvalues --    3.70718   3.71878   3.74292   3.75335   3.76509
  Beta virt. eigenvalues --    3.77153   3.77773   3.79088   3.79581   3.80320
  Beta virt. eigenvalues --    3.82763   3.83205   3.84934   3.86217   3.88716
  Beta virt. eigenvalues --    3.90813   3.91019   3.93225   3.95007   3.97608
  Beta virt. eigenvalues --    3.98535   3.99838   4.00244   4.04234   4.05411
  Beta virt. eigenvalues --    4.06906   4.07626   4.07930   4.08391   4.10721
  Beta virt. eigenvalues --    4.11148   4.12428   4.15107   4.16178   4.16541
  Beta virt. eigenvalues --    4.17404   4.20551   4.21835   4.24147   4.26298
  Beta virt. eigenvalues --    4.27454   4.28605   4.30148   4.31018   4.32411
  Beta virt. eigenvalues --    4.32893   4.34781   4.37159   4.37717   4.38433
  Beta virt. eigenvalues --    4.39107   4.41061   4.41966   4.42357   4.43903
  Beta virt. eigenvalues --    4.45756   4.46761   4.48642   4.50482   4.51085
  Beta virt. eigenvalues --    4.52504   4.53805   4.54269   4.54704   4.56655
  Beta virt. eigenvalues --    4.58395   4.59309   4.61337   4.64426   4.67213
  Beta virt. eigenvalues --    4.70894   4.74892   4.76299   4.78037   4.78742
  Beta virt. eigenvalues --    4.80109   4.82866   4.86921   4.88071   4.90961
  Beta virt. eigenvalues --    4.95094   4.96996   4.97525   5.00369   5.02897
  Beta virt. eigenvalues --    5.03498   5.04523   5.05471   5.09614   5.11686
  Beta virt. eigenvalues --    5.14164   5.15040   5.15918   5.20268   5.20757
  Beta virt. eigenvalues --    5.23000   5.24871   5.26510   5.26801   5.31041
  Beta virt. eigenvalues --    5.37137   5.45812   5.46709   5.51531   5.53287
  Beta virt. eigenvalues --    5.56747   5.60059   5.64009   5.68176   5.71602
  Beta virt. eigenvalues --    5.73005   5.74158   5.77566   5.83856   5.90758
  Beta virt. eigenvalues --    5.94858   5.98542   6.02260   6.15396   6.20616
  Beta virt. eigenvalues --    6.46554   6.57322   6.73648   6.78106   6.87277
  Beta virt. eigenvalues --    6.90505   6.94382   7.01060   7.19150   7.30550
  Beta virt. eigenvalues --    7.41687   7.43883   7.89060   8.15007  23.90302
  Beta virt. eigenvalues --   24.22631  24.56737  24.59567  24.64305  24.65873
  Beta virt. eigenvalues --   24.69454  24.80457  24.87800  25.09153  25.28625
  Beta virt. eigenvalues --   49.96608  49.97577
          Condensed to atoms (all electrons):
               1          2          3          4          5          6
     1  C    9.959751  -0.083490   0.290520  -0.044674   0.001829  -2.181870
     2  C   -0.083490   7.891791  -1.781525   0.163523  -0.023328   0.028715
     3  C    0.290520  -1.781525   9.718674   0.052305   0.348768  -0.789184
     4  C   -0.044674   0.163523   0.052305   6.064765   0.011260   0.115433
     5  H    0.001829  -0.023328   0.348768   0.011260   0.480451  -0.051323
     6  C   -2.181870   0.028715  -0.789184   0.115433  -0.051323  13.494054
     7  H    0.006948   0.388577   0.003698  -0.009550  -0.000117  -0.045795
     8  C    0.432020  -0.212561  -1.428253  -0.564697   0.062716  -3.514582
     9  H    0.001521  -0.014150   0.039774   0.402720  -0.006527  -0.072633
    10  C   -0.341971  -0.147558   0.395082  -0.099002  -0.002506  -0.487140
    11  C   -0.593323  -0.872084   0.172714   0.068983  -0.001863   0.417742
    12  H    0.027081   0.084987   0.005240   0.005682  -0.000003  -0.089817
    13  C    0.003183   0.063212  -0.473256  -0.402917   0.001629   0.104697
    14  H    0.003273   0.001594  -0.001999   0.000710   0.000000   0.073515
    15  C    0.236136   0.197903   0.758423   0.194046   0.010009  -1.132672
    16  H   -0.003452   0.003086   0.020076   0.030282  -0.000011  -0.059934
    17  H    0.001739   0.003280  -0.000299  -0.000867  -0.000001  -0.002844
    18  C   -1.639493   0.345848  -0.700863   0.089138   0.012317  -0.047049
    19  H   -0.031806   0.013003  -0.036577  -0.013990   0.000801  -0.013842
    20  H    0.075401  -0.078721  -0.004439   0.004847   0.000131  -0.037972
    21  H   -0.200217   0.048540   0.028728   0.034866   0.000682   0.007226
    22  O    0.043444   0.023740  -0.001788   0.005201  -0.000538   0.032906
    23  O   -0.104573   0.065439  -0.005428   0.000613  -0.000019   0.017386
    24  H    0.012050  -0.009040   0.003032   0.000400  -0.000000  -0.001617
               7          8          9         10         11         12
     1  C    0.006948   0.432020   0.001521  -0.341971  -0.593323   0.027081
     2  C    0.388577  -0.212561  -0.014150  -0.147558  -0.872084   0.084987
     3  C    0.003698  -1.428253   0.039774   0.395082   0.172714   0.005240
     4  C   -0.009550  -0.564697   0.402720  -0.099002   0.068983   0.005682
     5  H   -0.000117   0.062716  -0.006527  -0.002506  -0.001863  -0.000003
     6  C   -0.045795  -3.514582  -0.072633  -0.487140   0.417742  -0.089817
     7  H    0.462959  -0.068441   0.000030   0.059931   0.022120   0.002894
     8  C   -0.068441  16.030667  -0.050097  -0.619894  -0.122156  -0.086178
     9  H    0.000030  -0.050097   0.483369   0.004444   0.001097   0.000014
    10  C    0.059931  -0.619894   0.004444   6.439299   0.233026   0.430568
    11  C    0.022120  -0.122156   0.001097   0.233026   6.578104  -0.002246
    12  H    0.002894  -0.086178   0.000014   0.430568  -0.002246   0.481457
    13  C   -0.001672   0.421904   0.009927  -0.491227   0.390472  -0.014831
    14  H   -0.000012  -0.005589  -0.000003  -0.056257   0.342972  -0.006398
    15  C    0.005497  -4.574918   0.045902   0.871171  -0.272937   0.011503
    16  H    0.000014  -0.072294   0.002554  -0.005104  -0.000318   0.000035
    17  H   -0.000002   0.058713  -0.000009   0.009255   0.007957  -0.000092
    18  C    0.002217  -0.079552   0.000396  -0.100483  -0.009848  -0.002224
    19  H    0.003461  -0.004561   0.000000   0.004985   0.001064   0.000013
    20  H   -0.001268   0.010836   0.000009  -0.008162  -0.001295  -0.000007
    21  H    0.000142  -0.003879  -0.000012   0.004287   0.000637   0.000000
    22  O   -0.004964  -0.003157   0.000006   0.002020   0.000073  -0.000016
    23  O   -0.000056   0.001749   0.000000  -0.000569  -0.000016  -0.000008
    24  H    0.000014   0.000182  -0.000000  -0.000127  -0.000006  -0.000000
              13         14         15         16         17         18
     1  C    0.003183   0.003273   0.236136  -0.003452   0.001739  -1.639493
     2  C    0.063212   0.001594   0.197903   0.003086   0.003280   0.345848
     3  C   -0.473256  -0.001999   0.758423   0.020076  -0.000299  -0.700863
     4  C   -0.402917   0.000710   0.194046   0.030282  -0.000867   0.089138
     5  H    0.001629   0.000000   0.010009  -0.000011  -0.000001   0.012317
     6  C    0.104697   0.073515  -1.132672  -0.059934  -0.002844  -0.047049
     7  H   -0.001672  -0.000012   0.005497   0.000014  -0.000002   0.002217
     8  C    0.421904  -0.005589  -4.574918  -0.072294   0.058713  -0.079552
     9  H    0.009927  -0.000003   0.045902   0.002554  -0.000009   0.000396
    10  C   -0.491227  -0.056257   0.871171  -0.005104   0.009255  -0.100483
    11  C    0.390472   0.342972  -0.272937  -0.000318   0.007957  -0.009848
    12  H   -0.014831  -0.006398   0.011503   0.000035  -0.000092  -0.002224
    13  C    6.393838   0.026038  -0.019789   0.022342   0.358957  -0.019790
    14  H    0.026038   0.486708  -0.005942  -0.000103  -0.006641   0.000252
    15  C   -0.019789  -0.005942   9.695987   0.433169  -0.056633  -0.186298
    16  H    0.022342  -0.000103   0.433169   0.484079  -0.006432  -0.000453
    17  H    0.358957  -0.006641  -0.056633  -0.006432   0.485033   0.000127
    18  C   -0.019790   0.000252  -0.186298  -0.000453   0.000127   7.927922
    19  H   -0.000181  -0.000000  -0.001747   0.000000   0.000000   0.153708
    20  H    0.000121   0.000000   0.001706  -0.000000  -0.000000   0.401779
    21  H    0.000095   0.000000  -0.001612   0.000000  -0.000000   0.457857
    22  O    0.000451   0.000000  -0.000503  -0.000000  -0.000000  -0.048088
    23  O    0.000100   0.000000  -0.000548  -0.000000  -0.000000   0.079143
    24  H   -0.000000  -0.000000   0.000023  -0.000000   0.000000  -0.006730
              19         20         21         22         23         24
     1  C   -0.031806   0.075401  -0.200217   0.043444  -0.104573   0.012050
     2  C    0.013003  -0.078721   0.048540   0.023740   0.065439  -0.009040
     3  C   -0.036577  -0.004439   0.028728  -0.001788  -0.005428   0.003032
     4  C   -0.013990   0.004847   0.034866   0.005201   0.000613   0.000400
     5  H    0.000801   0.000131   0.000682  -0.000538  -0.000019  -0.000000
     6  C   -0.013842  -0.037972   0.007226   0.032906   0.017386  -0.001617
     7  H    0.003461  -0.001268   0.000142  -0.004964  -0.000056   0.000014
     8  C   -0.004561   0.010836  -0.003879  -0.003157   0.001749   0.000182
     9  H    0.000000   0.000009  -0.000012   0.000006   0.000000  -0.000000
    10  C    0.004985  -0.008162   0.004287   0.002020  -0.000569  -0.000127
    11  C    0.001064  -0.001295   0.000637   0.000073  -0.000016  -0.000006
    12  H    0.000013  -0.000007   0.000000  -0.000016  -0.000008  -0.000000
    13  C   -0.000181   0.000121   0.000095   0.000451   0.000100  -0.000000
    14  H   -0.000000   0.000000   0.000000   0.000000   0.000000  -0.000000
    15  C   -0.001747   0.001706  -0.001612  -0.000503  -0.000548   0.000023
    16  H    0.000000  -0.000000   0.000000  -0.000000  -0.000000  -0.000000
    17  H    0.000000  -0.000000  -0.000000  -0.000000  -0.000000   0.000000
    18  C    0.153708   0.401779   0.457857  -0.048088   0.079143  -0.006730
    19  H    0.788269  -0.009976  -0.028708  -0.403416  -0.093308  -0.001896
    20  H   -0.009976   0.505973  -0.021752  -0.000973  -0.002564  -0.000004
    21  H   -0.028708  -0.021752   0.516228   0.010811  -0.001207   0.000282
    22  O   -0.403416  -0.000973   0.010811   8.589275   0.049089  -0.012280
    23  O   -0.093308  -0.002564  -0.001207   0.049089   8.095098   0.227795
    24  H   -0.001896  -0.000004   0.000282  -0.012280   0.227795   0.518051
          Atomic-Atomic Spin Densities.
               1          2          3          4          5          6
     1  C    0.046651  -0.065890   0.034525  -0.036898   0.001909  -0.076231
     2  C   -0.065890   0.046270  -0.002213   0.008740  -0.000277   0.016613
     3  C    0.034525  -0.002213  -0.009927  -0.011628   0.001339  -0.040794
     4  C   -0.036898   0.008740  -0.011628   0.000141  -0.001115   0.007483
     5  H    0.001909  -0.000277   0.001339  -0.001115  -0.000303  -0.000362
     6  C   -0.076231   0.016613  -0.040794   0.007483  -0.000362   0.070216
     7  H   -0.004170   0.000473  -0.000645  -0.000443  -0.000003   0.006555
     8  C   -0.007032  -0.041927   0.023155  -0.030910   0.000584   0.062757
     9  H   -0.000170  -0.000216   0.002403  -0.000757   0.000023   0.000037
    10  C    0.000956   0.020179  -0.001709   0.004788   0.000001  -0.022014
    11  C   -0.010157  -0.005031  -0.011928  -0.007625  -0.000030   0.039866
    12  H    0.000090  -0.000131   0.000089   0.000102   0.000000  -0.000395
    13  C    0.000384  -0.011912   0.018046   0.017108   0.000046  -0.009752
    14  H   -0.000001   0.000020   0.000014   0.000021   0.000000  -0.000219
    15  C    0.013843   0.010594   0.037853   0.012393   0.000383  -0.058408
    16  H   -0.000009  -0.000067  -0.000030  -0.000189   0.000000   0.000153
    17  H    0.000005   0.000013  -0.000024  -0.000039  -0.000000   0.000103
    18  C    0.125506   0.046540  -0.031236   0.034189  -0.002526  -0.002597
    19  H   -0.002020   0.021052  -0.003344  -0.002976  -0.000039   0.010813
    20  H   -0.004105   0.001206   0.000408   0.000591  -0.000007   0.000449
    21  H   -0.001795  -0.001868   0.002208   0.002050  -0.000097  -0.000151
    22  O    0.006360  -0.028436   0.007629   0.001962   0.000048  -0.014896
    23  O   -0.005116  -0.000951  -0.002185  -0.000691   0.000005   0.000623
    24  H   -0.000007   0.000017   0.000072   0.000007  -0.000000   0.000008
               7          8          9         10         11         12
     1  C   -0.004170  -0.007032  -0.000170   0.000956  -0.010157   0.000090
     2  C    0.000473  -0.041927  -0.000216   0.020179  -0.005031  -0.000131
     3  C   -0.000645   0.023155   0.002403  -0.001709  -0.011928   0.000089
     4  C   -0.000443  -0.030910  -0.000757   0.004788  -0.007625   0.000102
     5  H   -0.000003   0.000584   0.000023   0.000001  -0.000030   0.000000
     6  C    0.006555   0.062757   0.000037  -0.022014   0.039866  -0.000395
     7  H    0.000158  -0.000470  -0.000000   0.001516   0.000566   0.000002
     8  C   -0.000470   0.050454  -0.001565  -0.008953   0.014362   0.000284
     9  H   -0.000000  -0.001565   0.000289   0.000105   0.000011  -0.000000
    10  C    0.001516  -0.008953   0.000105   0.030726  -0.021381   0.000008
    11  C    0.000566   0.014362   0.000011  -0.021381   0.013618  -0.000099
    12  H    0.000002   0.000284  -0.000000   0.000008  -0.000099  -0.000432
    13  C    0.000207  -0.006394  -0.000164  -0.008360   0.012606  -0.000197
    14  H   -0.000000   0.000019   0.000000   0.000169  -0.000106  -0.000002
    15  C   -0.000374  -0.094416   0.000295   0.019777  -0.024457   0.000051
    16  H    0.000000   0.000235   0.000004  -0.000014  -0.000027  -0.000000
    17  H   -0.000000   0.000183   0.000000  -0.000114   0.000055   0.000000
    18  C   -0.003724   0.048336   0.000055  -0.005528  -0.004636   0.000176
    19  H   -0.000565   0.002575  -0.000000   0.001520   0.000040   0.000001
    20  H    0.000144  -0.000558   0.000000   0.000263   0.000089  -0.000001
    21  H    0.000012  -0.000590  -0.000002  -0.000053   0.000021  -0.000000
    22  O    0.000448   0.000131   0.000001  -0.002574  -0.000277  -0.000004
    23  O    0.000058  -0.000381   0.000000   0.000240   0.000038  -0.000000
    24  H    0.000003   0.000015   0.000000  -0.000007  -0.000001  -0.000000
              13         14         15         16         17         18
     1  C    0.000384  -0.000001   0.013843  -0.000009   0.000005   0.125506
     2  C   -0.011912   0.000020   0.010594  -0.000067   0.000013   0.046540
     3  C    0.018046   0.000014   0.037853  -0.000030  -0.000024  -0.031236
     4  C    0.017108   0.000021   0.012393  -0.000189  -0.000039   0.034189
     5  H    0.000046   0.000000   0.000383   0.000000  -0.000000  -0.002526
     6  C   -0.009752  -0.000219  -0.058408   0.000153   0.000103  -0.002597
     7  H    0.000207  -0.000000  -0.000374   0.000000  -0.000000  -0.003724
     8  C   -0.006394   0.000019  -0.094416   0.000235   0.000183   0.048336
     9  H   -0.000164   0.000000   0.000295   0.000004   0.000000   0.000055
    10  C   -0.008360   0.000169   0.019777  -0.000014  -0.000114  -0.005528
    11  C    0.012606  -0.000106  -0.024457  -0.000027   0.000055  -0.004636
    12  H   -0.000197  -0.000002   0.000051  -0.000000   0.000000   0.000176
    13  C   -0.020260  -0.000081   0.009952   0.000189   0.000037   0.006667
    14  H   -0.000081   0.000237   0.000121   0.000000  -0.000000  -0.000002
    15  C    0.009952   0.000121   0.059496  -0.000253  -0.000212   0.008931
    16  H    0.000189   0.000000  -0.000253   0.000223   0.000000  -0.000008
    17  H    0.000037  -0.000000  -0.000212   0.000000  -0.000556  -0.000001
    18  C    0.006667  -0.000002   0.008931  -0.000008  -0.000001  -0.150436
    19  H    0.000130   0.000000  -0.000111  -0.000000  -0.000000  -0.018888
    20  H   -0.000008  -0.000000  -0.000153  -0.000000   0.000000   0.002732
    21  H   -0.000019  -0.000000  -0.000036  -0.000000   0.000000  -0.001632
    22  O   -0.000128  -0.000000   0.000226   0.000000   0.000000  -0.001360
    23  O   -0.000012  -0.000000  -0.000014   0.000000   0.000000   0.017344
    24  H    0.000000  -0.000000   0.000000   0.000000  -0.000000   0.000140
              19         20         21         22         23         24
     1  C   -0.002020  -0.004105  -0.001795   0.006360  -0.005116  -0.000007
     2  C    0.021052   0.001206  -0.001868  -0.028436  -0.000951   0.000017
     3  C   -0.003344   0.000408   0.002208   0.007629  -0.002185   0.000072
     4  C   -0.002976   0.000591   0.002050   0.001962  -0.000691   0.000007
     5  H   -0.000039  -0.000007  -0.000097   0.000048   0.000005  -0.000000
     6  C    0.010813   0.000449  -0.000151  -0.014896   0.000623   0.000008
     7  H   -0.000565   0.000144   0.000012   0.000448   0.000058   0.000003
     8  C    0.002575  -0.000558  -0.000590   0.000131  -0.000381   0.000015
     9  H   -0.000000   0.000000  -0.000002   0.000001   0.000000   0.000000
    10  C    0.001520   0.000263  -0.000053  -0.002574   0.000240  -0.000007
    11  C    0.000040   0.000089   0.000021  -0.000277   0.000038  -0.000001
    12  H    0.000001  -0.000001  -0.000000  -0.000004  -0.000000  -0.000000
    13  C    0.000130  -0.000008  -0.000019  -0.000128  -0.000012   0.000000
    14  H    0.000000  -0.000000  -0.000000  -0.000000  -0.000000  -0.000000
    15  C   -0.000111  -0.000153  -0.000036   0.000226  -0.000014   0.000000
    16  H   -0.000000  -0.000000  -0.000000   0.000000   0.000000   0.000000
    17  H   -0.000000   0.000000   0.000000   0.000000   0.000000  -0.000000
    18  C   -0.018888   0.002732  -0.001632  -0.001360   0.017344   0.000140
    19  H   -0.014470   0.000204  -0.002362  -0.002399   0.022987   0.000179
    20  H    0.000204  -0.005700   0.000374   0.002181  -0.000479  -0.000017
    21  H   -0.002362   0.000374   0.001136   0.003194  -0.000680  -0.000015
    22  O   -0.002399   0.002181   0.003194   0.777955  -0.115945  -0.001883
    23  O    0.022987  -0.000479  -0.000680  -0.115945   0.335868   0.004013
    24  H    0.000179  -0.000017  -0.000015  -0.001883   0.004013  -0.012406
 Mulliken charges and spin densities:
               1          2
     1  C    0.129974   0.016629
     2  C   -0.100781   0.012797
     3  C   -0.613422   0.012078
     4  C   -0.109077  -0.003695
     5  H    0.155643  -0.000422
     6  C    0.236599  -0.010145
     7  H    0.173374  -0.000251
     8  C    0.392023   0.009895
     9  H    0.151665   0.000350
    10  C   -0.094068   0.009541
    11  C   -0.360871  -0.004484
    12  H    0.152345  -0.000457
    13  C   -0.373305   0.008085
    14  H    0.147882   0.000191
    15  C   -0.207878  -0.004519
    16  H    0.152466   0.000207
    17  H    0.148760  -0.000549
    18  C   -0.629832   0.068043
    19  H    0.674703   0.012327
    20  H    0.166329  -0.002386
    21  H    0.147006  -0.000306
    22  O   -0.281293   0.632230
    23  O   -0.328115   0.254721
    24  H    0.269873  -0.009881
 Sum of Mulliken charges =  -0.00000   1.00000
 Mulliken charges and spin densities with hydrogens summed into heavy atoms:
               1          2
     1  C    0.129974   0.016629
     2  C    0.072593   0.012546
     3  C   -0.457779   0.011656
     4  C    0.042588  -0.003345
     6  C    0.236599  -0.010145
     8  C    0.392023   0.009895
    10  C    0.058278   0.009084
    11  C   -0.212989  -0.004293
    13  C   -0.224545   0.007536
    15  C   -0.055412  -0.004312
    18  C    0.358206   0.077679
    22  O   -0.281293   0.632230
    23  O   -0.058242   0.244840
 Electronic spatial extent (au):  <R**2>=           3298.9110
 Charge=             -0.0000 electrons
 Dipole moment (field-independent basis, Debye):
    X=              1.5013    Y=              0.9763    Z=             -0.5717  Tot=              1.8798
 Quadrupole moment (field-independent basis, Debye-Ang):
   XX=            -57.5300   YY=            -72.6090   ZZ=            -80.0074
   XY=              4.0489   XZ=             -2.4229   YZ=             -2.0215
 Traceless Quadrupole moment (field-independent basis, Debye-Ang):
   XX=             12.5188   YY=             -2.5602   ZZ=             -9.9586
   XY=              4.0489   XZ=             -2.4229   YZ=             -2.0215
 Octapole moment (field-independent basis, Debye-Ang**2):
  XXX=            123.3392  YYY=             -2.1752  ZZZ=             -4.1713  XYY=             -3.4797
  XXY=              8.0497  XXZ=            -39.6707  XZZ=             30.4352  YZZ=             -4.0595
  YYZ=             -1.6420  XYZ=              6.1449
 Hexadecapole moment (field-independent basis, Debye-Ang**3):
 XXXX=          -2413.2403 YYYY=           -823.1117 ZZZZ=           -166.2163 XXXY=              7.3402
 XXXZ=           -180.2694 YYYX=             -3.0680 YYYZ=            -19.1299 ZZZX=            -26.2692
 ZZZY=              7.1780 XXYY=           -694.8786 XXZZ=           -556.8453 YYZZ=           -186.0677
 XXYZ=             11.1377 YYXZ=             -2.3478 ZZXY=            -24.8991
 N-N= 7.103879773510D+02 E-N=-2.763882960950D+03  KE= 5.740555791258D+02
                          Isotropic Fermi Contact Couplings
        Atom                 a.u.       MegaHertz       Gauss      10(-4) cm-1
     1  C(13)              0.00673       7.56398       2.69902       2.52307
     2  C(13)              0.00252       2.83087       1.01013       0.94428
     3  C(13)              0.00461       5.18474       1.85004       1.72944
     4  C(13)              0.00067       0.75644       0.26992       0.25232
     5  H(1)               0.00000       0.00421       0.00150       0.00140
     6  C(13)             -0.00140      -1.57885      -0.56337      -0.52665
     7  H(1)              -0.00033      -1.47924      -0.52783      -0.49342
     8  C(13)              0.00079       0.89349       0.31882       0.29804
     9  H(1)               0.00018       0.79831       0.28486       0.26629
    10  C(13)              0.00081       0.90716       0.32370       0.30260
    11  C(13)             -0.00071      -0.79650      -0.28421      -0.26569
    12  H(1)              -0.00010      -0.45826      -0.16352      -0.15286
    13  C(13)              0.00086       0.96380       0.34391       0.32149
    14  H(1)               0.00004       0.16380       0.05845       0.05464
    15  C(13)             -0.00070      -0.79010      -0.28193      -0.26355
    16  H(1)               0.00005       0.20490       0.07311       0.06835
    17  H(1)              -0.00011      -0.47686      -0.17015      -0.15906
    18  C(13)              0.04065      45.70206      16.30763      15.24457
    19  H(1)               0.00319      14.24237       5.08203       4.75074
    20  H(1)              -0.00177      -7.90810      -2.82181      -2.63786
    21  H(1)              -0.00035      -1.58141      -0.56429      -0.52750
    22  O(17)              0.16995    -103.02029     -36.76020     -34.36387
    23  O(17)              0.05252     -31.84036     -11.36143     -10.62080
    24  H(1)              -0.00501     -22.38786      -7.98855      -7.46779
 --------------------------------------------------------
       Center         ----  Spin Dipole Couplings  ----
                      3XX-RR        3YY-RR        3ZZ-RR
 --------------------------------------------------------
     1   Atom        0.026899     -0.008020     -0.018879
     2   Atom       -0.003016     -0.012194      0.015211
     3   Atom       -0.000519     -0.002855      0.003375
     4   Atom        0.003504     -0.000094     -0.003411
     5   Atom       -0.000123      0.001987     -0.001864
     6   Atom        0.004239      0.000315     -0.004554
     7   Atom        0.004913     -0.001837     -0.003076
     8   Atom       -0.001200     -0.003516      0.004716
     9   Atom        0.000697      0.000042     -0.000740
    10   Atom       -0.001566     -0.003762      0.005328
    11   Atom        0.002236      0.000889     -0.003125
    12   Atom        0.001034     -0.000127     -0.000907
    13   Atom       -0.002395     -0.003516      0.005911
    14   Atom        0.000684     -0.000295     -0.000388
    15   Atom        0.002414      0.001064     -0.003478
    16   Atom        0.000662     -0.000249     -0.000413
    17   Atom        0.000968     -0.000695     -0.000273
    18   Atom        0.002300      0.033484     -0.035785
    19   Atom        0.034853      0.014811     -0.049664
    20   Atom       -0.006877     -0.005323      0.012200
    21   Atom       -0.005087      0.014156     -0.009069
    22   Atom       -0.817685     -1.057731      1.875417
    23   Atom       -0.761680     -0.221810      0.983490
    24   Atom        0.013365     -0.007921     -0.005444
 --------------------------------------------------------
                        XY            XZ            YZ
 --------------------------------------------------------
     1   Atom       -0.009411     -0.009518      0.001785
     2   Atom       -0.000579     -0.009651      0.004782
     3   Atom       -0.004588      0.005014     -0.003029
     4   Atom       -0.000231      0.004525     -0.000832
     5   Atom       -0.001992     -0.000015     -0.000710
     6   Atom        0.000558      0.000639     -0.000905
     7   Atom        0.001798     -0.003029     -0.001571
     8   Atom       -0.000667     -0.001684      0.001779
     9   Atom       -0.000702      0.000240     -0.000029
    10   Atom        0.000179     -0.002226      0.001623
    11   Atom        0.000361      0.000845     -0.000814
    12   Atom        0.000595     -0.000327     -0.000299
    13   Atom       -0.000324     -0.001783      0.002304
    14   Atom        0.000191      0.000016     -0.000029
    15   Atom        0.000211      0.000927     -0.001036
    16   Atom       -0.000030      0.000062      0.000021
    17   Atom        0.000132      0.000113      0.000118
    18   Atom       -0.083868     -0.043876      0.053026
    19   Atom       -0.104301     -0.025696      0.041161
    20   Atom       -0.005361     -0.004771      0.007967
    21   Atom       -0.001458     -0.003354      0.001357
    22   Atom        0.463268      1.405944      1.071269
    23   Atom        0.229124      0.165124      0.927866
    24   Atom        0.031998     -0.036634     -0.011475
 --------------------------------------------------------


 ---------------------------------------------------------------------------------
              Anisotropic Spin Dipole Couplings in Principal Axis System
 ---------------------------------------------------------------------------------

       Atom             a.u.   MegaHertz   Gauss  10(-4) cm-1        Axes

              Baa    -0.0208    -2.788    -0.995    -0.930  0.1974  0.0085  0.9803
     1 C(13)  Bbb    -0.0104    -1.391    -0.496    -0.464  0.2313  0.9713 -0.0550
              Bcc     0.0311     4.179     1.491     1.394  0.9527 -0.2376 -0.1898
 
              Baa    -0.0132    -1.766    -0.630    -0.589 -0.1475  0.9659 -0.2130
     2 C(13)  Bbb    -0.0069    -0.923    -0.329    -0.308  0.9109  0.2166  0.3512
              Bcc     0.0200     2.689     0.959     0.897 -0.3853  0.1422  0.9118
 
              Baa    -0.0065    -0.872    -0.311    -0.291  0.6606  0.7430 -0.1076
     3 C(13)  Bbb    -0.0026    -0.342    -0.122    -0.114 -0.4899  0.5352  0.6881
              Bcc     0.0090     1.214     0.433     0.405  0.5689 -0.4019  0.7175
 
              Baa    -0.0057    -0.768    -0.274    -0.256 -0.4352  0.1141  0.8931
     4 C(13)  Bbb    -0.0001    -0.010    -0.004    -0.003  0.1383  0.9886 -0.0589
              Bcc     0.0058     0.778     0.278     0.260  0.8897 -0.0979  0.4460
 
              Baa    -0.0021    -1.128    -0.402    -0.376  0.3159  0.3087  0.8972
     5 H(1)   Bbb    -0.0011    -0.610    -0.218    -0.204  0.8040  0.4150 -0.4259
              Bcc     0.0033     1.738     0.620     0.580 -0.5038  0.8558 -0.1171
 
              Baa    -0.0048    -0.641    -0.229    -0.214 -0.0808  0.1831  0.9798
     6 C(13)  Bbb     0.0004     0.058     0.021     0.019 -0.1109  0.9752 -0.1914
              Bcc     0.0043     0.583     0.208     0.195  0.9905  0.1241  0.0585
 
              Baa    -0.0045    -2.390    -0.853    -0.797  0.2151  0.3866  0.8968
     7 H(1)   Bbb    -0.0020    -1.088    -0.388    -0.363 -0.3580  0.8856 -0.2959
              Bcc     0.0065     3.478     1.241     1.160  0.9086  0.2574 -0.3289
 
              Baa    -0.0039    -0.527    -0.188    -0.176  0.1306  0.9758 -0.1755
     8 C(13)  Bbb    -0.0016    -0.219    -0.078    -0.073  0.9579 -0.0785  0.2761
              Bcc     0.0056     0.745     0.266     0.249 -0.2557  0.2042  0.9450
 
              Baa    -0.0008    -0.423    -0.151    -0.141 -0.2294 -0.1592  0.9602
     9 H(1)   Bbb    -0.0004    -0.201    -0.072    -0.067  0.4883  0.8346  0.2550
              Bcc     0.0012     0.624     0.223     0.208  0.8420 -0.5274  0.1138
 
              Baa    -0.0042    -0.562    -0.200    -0.187 -0.2510  0.9428 -0.2195
    10 C(13)  Bbb    -0.0020    -0.272    -0.097    -0.091  0.9299  0.2978  0.2158
              Bcc     0.0062     0.834     0.297     0.278 -0.2688  0.1500  0.9514
 
              Baa    -0.0034    -0.460    -0.164    -0.153 -0.1569  0.1957  0.9680
    11 C(13)  Bbb     0.0010     0.137     0.049     0.046 -0.1358  0.9666 -0.2175
              Bcc     0.0024     0.323     0.115     0.108  0.9782  0.1656  0.1250
 
              Baa    -0.0010    -0.543    -0.194    -0.181  0.0735  0.2730  0.9592
    12 H(1)   Bbb    -0.0003    -0.184    -0.066    -0.061 -0.4298  0.8766 -0.2165
              Bcc     0.0014     0.727     0.259     0.242  0.8999  0.3963 -0.1818
 
              Baa    -0.0041    -0.544    -0.194    -0.181 -0.0634  0.9698 -0.2355
    13 C(13)  Bbb    -0.0027    -0.368    -0.131    -0.123  0.9791  0.1061  0.1734
              Bcc     0.0068     0.913     0.326     0.304 -0.1931  0.2196  0.9563
 
              Baa    -0.0004    -0.215    -0.077    -0.072 -0.0833  0.3955  0.9147
    14 H(1)   Bbb    -0.0003    -0.169    -0.060    -0.057 -0.1649  0.8997 -0.4041
              Bcc     0.0007     0.384     0.137     0.128  0.9828  0.1845  0.0097
 
              Baa    -0.0038    -0.516    -0.184    -0.172 -0.1502  0.2102  0.9660
    15 C(13)  Bbb     0.0013     0.173     0.062     0.058 -0.0074  0.9769 -0.2137
              Bcc     0.0026     0.343     0.123     0.115  0.9886  0.0392  0.1452
 
              Baa    -0.0004    -0.224    -0.080    -0.075 -0.0601 -0.1330  0.9893
    16 H(1)   Bbb    -0.0002    -0.132    -0.047    -0.044  0.0235  0.9906  0.1347
              Bcc     0.0007     0.355     0.127     0.119  0.9979 -0.0313  0.0564
 
              Baa    -0.0007    -0.390    -0.139    -0.130 -0.0600  0.9704 -0.2339
    17 H(1)   Bbb    -0.0003    -0.138    -0.049    -0.046 -0.1133  0.2262  0.9675
              Bcc     0.0010     0.528     0.188     0.176  0.9917  0.0845  0.0964
 
              Baa    -0.0674    -9.047    -3.228    -3.018  0.7581  0.6510 -0.0398
    18 C(13)  Bbb    -0.0641    -8.601    -3.069    -2.869  0.2759 -0.2649  0.9239
              Bcc     0.1315    17.648     6.297     5.887 -0.5909  0.7114  0.3805
 
              Baa    -0.0865   -46.131   -16.461   -15.388  0.5297  0.7247 -0.4407
    19 H(1)   Bbb    -0.0546   -29.149   -10.401    -9.723  0.4654  0.1861  0.8653
              Bcc     0.1411    75.280    26.862    25.111  0.7091 -0.6635 -0.2387
 
              Baa    -0.0117    -6.229    -2.223    -2.078  0.6966  0.7107 -0.0979
    20 H(1)   Bbb    -0.0053    -2.850    -1.017    -0.951  0.6678 -0.5924  0.4507
              Bcc     0.0170     9.079     3.240     3.028 -0.2623  0.3794  0.8873
 
[...]
 .00048296,0.00008520,0.00122171,0.00162119,0.00073606,-0.00001310,-0.0
 0001219,-0.00003632,-0.00483152,0.00045794,-0.00194091,-0.00042768,0.0
 0013396,-0.00010832,-0.00093665,0.02864713,-0.00311810,-0.00036120,-0.
 00095205,-0.00002358,-0.00118170,-0.00038112,-0.00001015,-0.00298910,-
 0.00314556,-0.00189278,0.00009808,0.00006690,0.00021785,0.00880965,-0.
 02413946,0.00260838,0.00025308,-0.00121259,0.00013539,-0.06765830,0.04
 810098,-0.01018147,0.06688740,0.00009117,0.00032638,-0.00001590,-0.000
 58909,-0.00049746,-0.00005804,0.00040442,-0.00006477,0.00007519,-0.001
 47378,0.00095434,-0.00057976,0.00004392,-0.00000884,0.00002084,0.00151
 782,0.00155142,0.00056192,0.00014433,-0.00004805,0.00004044,-0.0000238
 7,-0.00703629,0.00082298,0.00073003,0.00035496,0.00012719,-0.00019076,
 0.00056150,-0.00015312,-0.00399358,-0.00046081,-0.00006509,0.00005831,
 -0.00011802,-0.00006183,0.00618301,-0.01547294,0.00279939,0.00036556,-
 0.00083872,0.00013753,0.04776121,-0.31654589,0.03353608,-0.05096434,0.
 33653423,0.00000876,0.00003574,-0.00006996,0.00007027,0.00030677,0.000
 01207,0.00003022,-0.00010965,-0.00007143,0.00090442,-0.00001753,-0.003
 07216,-0.00003971,0.00001197,0.00016708,-0.00198311,0.00042036,0.00500
 417,-0.00011545,0.00003815,0.00013999,-0.00084865,0.00612378,0.0030392
 6,-0.00015027,-0.00020875,0.00025930,-0.00004439,-0.00019553,-0.000984
 03,-0.00182137,0.00013415,0.00824451,0.00021770,-0.00006328,-0.0010532
 5,0.00022204,-0.00275678,0.00509203,0.00001446,-0.00015751,0.00006713,
 -0.01016942,0.03360244,-0.04197653,0.01256425,-0.03673359,0.03018507,0
 .00004430,-0.00020196,-0.00000846,0.00012174,0.00012846,0.00016766,-0.
 00040956,-0.00028953,0.00005071,-0.00053330,0.00088361,-0.00018766,-0.
 00010399,0.00004337,-0.00001736,0.00023090,-0.00049357,0.00023413,-0.0
 0000860,0.00001797,-0.00001193,-0.00093105,-0.00401498,-0.00157672,-0.
 00000227,-0.00004438,-0.00002387,0.00181992,0.00069415,-0.00075568,-0.
 00083804,-0.00073475,-0.00071543,-0.00016235,-0.00012014,-0.00002249,-
 0.30259832,0.07994119,-0.05346175,0.00039407,0.00038969,0.00058060,-0.
 01703737,0.00964990,-0.00472477,0.00065305,-0.00006740,0.00113467,0.31
 934782,-0.00004315,-0.00041249,0.00003170,0.00050540,0.00018788,0.0000
 0833,-0.00044737,0.00009453,-0.00013366,-0.00031718,0.00079616,-0.0001
 1560,-0.00010374,0.00004318,-0.00002299,-0.00103610,-0.00088297,-0.000
 18340,-0.00007444,0.00003330,-0.00001338,-0.00355128,-0.00268465,0.000
 31688,0.00001096,-0.00001845,0.00001524,0.00016667,-0.00584478,0.00095
 192,0.02946277,-0.00408040,0.00594791,0.00145726,-0.00037104,0.0002832
 2,0.08037933,-0.08705227,0.01877643,-0.00054535,0.00096261,-0.00039192
 ,-0.02063112,0.01090897,-0.00425198,0.00059058,0.00077096,-0.00040176,
 -0.08579354,0.08751456,-0.00003914,0.00002184,0.00011815,0.00014617,-0
 .00005632,-0.00082279,0.00008505,-0.00011286,-0.00057507,-0.00012585,0
 .00011299,0.00010840,-0.00001604,0.00000403,-0.00002765,0.00025490,-0.
 00004391,-0.00076585,-0.00000484,0.00000290,0.00004334,-0.00156982,0.0
 0016555,0.00885512,-0.00002568,0.00000415,0.00014419,-0.00067929,0.001
 03697,0.00528297,-0.00321035,0.00050191,0.00279987,-0.00015343,0.00001
 254,0.00000545,-0.05325928,0.01863235,-0.04946827,0.00066949,-0.000232
 32,-0.00275750,-0.00247893,0.00123830,0.00401165,0.00104414,-0.0004612
 6,-0.00500225,0.05934031,-0.02081226,0.03798974,-0.20674498,0.04433424
 ,-0.03703650,-0.04593458,-0.00198101,-0.00990329,-0.01434525,0.0181031
 1,-0.00359397,0.00940215,-0.00000912,0.00147314,0.00114334,-0.00205354
 ,0.00034579,0.00355156,-0.00484144,-0.00000897,0.00117500,0.00145073,0
 .00046252,-0.00644494,-0.00069154,-0.00082380,0.00029967,-0.00020469,-
 0.00012082,-0.00064925,-0.00026060,-0.00021584,-0.00078842,0.00031173,
 -0.00010556,-0.00000750,0.00003460,-0.00000366,-0.00130605,-0.00227217
 ,-0.00007215,-0.00001386,0.00008956,0.00001336,0.00448786,0.00092879,0
 .00067450,0.00003847,-0.00003454,0.00000678,0.00001361,-0.00003328,0.0
 0002638,0.50102973,0.03505862,-0.11064266,0.01160367,-0.01418181,0.014
 68437,-0.00491249,0.03671170,-0.01450530,0.00927549,-0.00396734,-0.005
 79463,0.00067581,0.00109824,0.00124612,-0.00050088,-0.00460533,-0.0024
 8087,-0.00112949,-0.00138199,0.00080031,0.00016872,0.00203192,-0.00045
 227,0.00029992,0.00129982,-0.00036670,0.00024569,-0.00057676,0.0011149
 7,-0.00010626,-0.00012752,-0.00035211,0.00003021,0.00001849,-0.0000560
 0,-0.00000513,0.00052082,0.00064405,0.00004013,-0.00013939,0.00002665,
 -0.00002918,-0.00141074,-0.00002344,-0.00025773,-0.00010706,0.00005867
 ,-0.00003944,0.00000462,0.00003311,-0.00000020,0.02458430,0.55363832,0
 .00465607,0.00485783,-0.05634965,-0.01909356,-0.01026960,0.00302228,-0
 .00855001,0.01384618,0.00326976,0.00840537,0.00052246,0.00569957,0.000
 22118,-0.00041343,-0.00200827,0.00312946,-0.00146508,0.00773005,0.0006
 0176,-0.00000904,-0.00349271,-0.00604328,-0.00079227,-0.00204810,0.000
 40561,-0.00022163,-0.00003414,-0.00003404,-0.00101702,0.00012034,-0.00
 037898,0.00058311,-0.00061515,-0.00006795,0.00010459,0.00014854,-0.001
 24163,-0.00227263,-0.00000687,0.00012295,0.00006642,0.00001497,0.00458
 857,0.00089736,0.00035048,0.00007850,-0.00007835,0.00006051,0.00004806
 ,-0.00004194,0.00007106,-0.03896001,0.00858142,0.42527762,-0.00901929,
 0.00326712,-0.02436164,-0.00052320,0.00116849,0.00076541,-0.00014274,-
 0.00044595,0.00084149,-0.00076824,-0.00026264,0.00044032,0.00013233,-0
 .00000978,-0.00015659,-0.00016148,0.00007540,0.00100136,0.00004001,-0.
 00034245,-0.00063785,-0.00007384,0.00017965,-0.00013247,0.00000652,0.0
 0004781,-0.00012425,-0.00006242,0.00009412,-0.00002556,0.00010105,0.00
 012560,-0.00007125,0.00000071,-0.00001218,0.00000485,-0.00023249,0.000
 15304,-0.00002816,-0.00002391,-0.00001680,-0.00000684,-0.00007703,-0.0
 0017337,0.00000039,-0.00001732,0.00002795,-0.00000766,0.00000386,-0.00
 000379,-0.00001038,0.00606680,0.00044056,0.00365286,0.01967654,0.00783
 512,-0.00223845,0.01043716,-0.00260684,-0.00090565,-0.00001261,0.00059
 566,0.00090372,-0.00067746,0.00069373,-0.00015195,-0.00041901,-0.00015
 570,-0.00022962,0.00033243,0.00056836,-0.00054650,-0.00012965,-0.00022
 879,-0.00023630,-0.00012173,-0.00028582,0.00011877,0.00004641,0.000033
 33,-0.00004145,0.00007518,-0.00013477,-0.00014549,-0.00002236,-0.00000
 657,-0.00009796,0.00002825,-0.00002262,-0.00000776,-0.00001014,0.00000
 455,-0.00014104,-0.00000519,0.00002105,0.00000999,0.00000720,0.0002908
 6,0.00008567,0.00007194,0.00002369,-0.00002495,0.00001402,0.00000606,-
 0.00000648,-0.00000018,-0.00337099,0.01118449,-0.00306600,-0.01437023,
 -0.00736732,-0.05227130,0.01008348,-0.02710281,0.01559476,0.01213519,0
 .00139226,0.00566642,-0.01315811,0.00030640,-0.00938201,-0.00072346,-0
 .00063909,0.00027957,0.00019703,-0.00065474,-0.00342648,0.00202641,0.0
 0085535,0.00014760,-0.00026421,-0.00123220,0.00593945,0.00102429,0.000
 94291,-0.00034164,0.00018375,0.00011874,-0.00014413,0.00107872,0.00004
 301,0.00064308,-0.00048103,0.00006793,0.00003998,-0.00009458,-0.000012
 48,0.00089085,0.00241150,0.00000747,-0.00013744,-0.00008713,-0.0000411
 7,-0.00434813,-0.00114796,-0.00096204,-0.00010363,0.00011751,-0.000039
 88,-0.00005721,0.00004631,-0.00000467,0.03685305,-0.00685811,-0.070660
 91,0.00051049,-0.00306017,0.15506349,-0.00257150,0.02692239,0.00951424
 ,0.00124154,0.00129821,-0.00043097,-0.00489816,-0.00006075,-0.00083251
 ,0.00056803,0.00133552,-0.00052120,-0.00000167,0.00023662,0.00009703,0
 .00011722,-0.00033535,-0.00009477,-0.00052177,-0.00088521,0.00018367,-
 0.00013620,0.00001439,0.00006260,-0.00035820,0.00011507,-0.00007079,0.
 00009014,0.00003700,-0.00002234,-0.00005431,0.00013742,0.00000755,-0.0
 0003250,-0.00002236,-0.00000362,-0.00016496,-0.00010471,-0.00002942,-0
 .00000093,-0.00000591,0.00000117,0.00018802,-0.00010401,0.00002346,0.0
 0001702,-0.00000503,0.00000269,-0.00000169,-0.00000925,0.00000804,-0.0
 6341679,0.04728026,0.01783989,0.00028616,0.00062723,0.00042723,0.06317
 735,0.00213260,-0.00691907,-0.00238856,-0.00237248,0.00055500,0.000529
 01,0.00174821,0.00055422,-0.00046342,-0.00010688,-0.00027616,0.0003137
 4,-0.00003853,0.00033972,-0.00015636,0.00047877,0.00006859,0.00058717,
 0.00051410,0.00035265,-0.00055070,-0.00014991,0.00016165,-0.00004942,0
 .00013456,-0.00003684,0.00005193,-0.00008931,-0.00012078,-0.00006713,0
 .00008359,-0.00003730,0.00002216,0.00000108,0.00001684,0.00000385,-0.0
 0000172,0.00001660,0.00000020,0.00000906,0.00000350,0.00000354,0.00010
 930,0.00008842,-0.00009045,-0.00001460,-0.00000907,0.00000443,0.000009
 39,0.00000327,0.00000826,0.04874596,-0.28565649,-0.07922342,0.00087024
 ,-0.00368308,0.00310122,-0.05634948,0.30597047,-0.00945779,0.01198239,
 0.00151523,0.00202801,0.00150767,-0.00068960,-0.00128562,-0.00109199,0
 .00166304,-0.00169704,0.00040275,-0.00047899,-0.00004248,-0.00012223,-
 0.00000447,-0.00002079,0.00023192,-0.00014268,0.00025860,-0.00011466,0
 .00025196,0.00106124,0.00040659,0.00020300,-0.00013245,0.00006301,-0.0
 0021733,-0.00015148,0.00001517,-0.00003789,0.00014749,-0.00023141,0.00
 004895,0.00000493,-0.00000682,0.00000559,0.00024769,0.00040819,0.00002
 517,-0.00000625,-0.00000844,0.00000313,-0.00071787,-0.00009293,-0.0001
 0903,-0.00000457,-0.00000191,-0.00001489,-0.00000882,0.00000835,-0.000
 00307,0.02514571,-0.08801207,-0.04672786,0.00256571,-0.01806393,-0.029
 19378,-0.01799782,0.08587523,0.05872438,-0.01779514,-0.01979342,0.0084
 5594,-0.00458885,0.00340193,-0.00079341,0.00152140,-0.00217708,-0.0003
 5829,-0.00004780,0.00027008,-0.00023213,-0.00017770,0.00118747,0.00016
 317,0.00001403,-0.00140088,-0.00081980,-0.00000525,0.00004830,0.000303
 81,0.00010535,0.00006727,0.00009616,-0.00002184,0.00001862,0.00003500,
 -0.00043627,0.00026931,-0.00012502,-0.00001570,-0.00015744,0.00009780,
 0.00002437,-0.00000498,-0.00001576,-0.00004314,0.00009135,-0.00003707,
 -0.00005208,0.00001020,-0.00000694,-0.00000627,0.00006267,0.00004755,-
 0.00002975,0.00002367,-0.00000512,-0.00000019,0.00000960,-0.00000948,-
 0.19193005,-0.12374563,0.04947540,-0.00161705,-0.00123348,-0.00133208,
 0.00659973,0.00485160,-0.00186138,0.20746293,0.00724581,0.00815347,-0.
 00313546,0.00160031,-0.00052677,0.00092765,0.00138906,0.00060268,-0.00
 021636,-0.00038227,0.00015674,-0.00032149,-0.00007530,-0.00019098,0.00
 021091,0.00026552,0.00052796,0.00019650,0.00028116,0.00029203,0.000016
 05,0.00024130,0.00016016,-0.00002108,-0.00005503,0.00001178,0.00001591
 ,0.00007675,-0.00005538,0.00001751,0.00002473,-0.00003738,-0.00001249,
 0.00000891,0.00000242,0.00000740,0.00007533,0.00007028,0.00001903,0.00
 000752,-0.00000458,-0.00000136,-0.00017955,-0.00000915,0.00005020,-0.0
 0000191,0.00000145,0.00000157,-0.00000590,-0.00000013,-0.00001921,-0.1
 2681194,-0.16607377,0.04277160,-0.00280871,-0.00262091,-0.00188051,-0.
 01987841,-0.01327521,0.00891311,0.13761339,0.17187014,-0.01318530,-0.0
 0559391,0.00167711,-0.00015679,0.00193745,0.00157948,0.00067177,-0.001
 35094,-0.00076008,-0.00037853,-0.00009348,-0.00018005,0.00020670,-0.00
 007477,0.00024703,-0.00118885,0.00004679,-0.00044748,0.00003067,0.0001
 1250,0.00004059,0.00034099,-0.00022452,0.00011839,-0.00001943,0.000014
 40,0.00000881,0.00013698,0.00021361,-0.00012228,-0.00013697,-0.0000006
 9,0.00000954,0.00001241,-0.00001687,-0.00000999,0.00012477,0.00001707,
 0.00000519,-0.00002640,0.00000419,0.00000955,-0.00025317,-0.00001569,-
 0.00001759,-0.00001070,0.00000762,0.00000128,-0.00000973,0.00000307,-0
 .00000711,0.06015897,0.04590157,-0.04476662,0.01417516,0.01583553,-0.0
 2257048,-0.00805905,-0.00692300,0.00297324,-0.05352126,-0.04809229,0.0
 5244410,0.00596861,0.00047054,0.00359162,-0.00128875,-0.00289338,-0.00
 004103,0.00000286,0.00197761,0.00017086,0.00169743,0.00042498,-0.00006
 263,-0.00015709,-0.00001627,0.00025186,-0.00003704,-0.00008500,-0.0003
 7602,0.00002843,0.00007123,0.00061212,-0.00034011,-0.00047639,0.000037
 97,0.00013648,-0.00014889,0.00004225,0.00023330,-0.00054547,0.00001041
 ,-0.00011157,-0.00016581,0.00000213,-0.00003549,0.00007006,0.00003440,
 0.00050826,-0.00053569,0.00011645,0.00011532,0.00005686,0.00003340,0.0
 0056845,0.00062799,0.00007633,0.00005257,-0.00011029,0.00003669,0.0000
 3997,-0.00000155,0.00002046,-0.00358013,0.00315746,-0.04815327,0.00695
 349,-0.00143721,0.05935410,-0.00031914,-0.00013143,0.00608864,0.000745
 77,0.00112582,0.00618263,0.27198886,-0.00572296,0.00033613,-0.00338612
 ,0.00192620,0.00193109,0.00001968,-0.00008344,-0.00174321,0.00006785,-
 0.00120734,-0.00012650,-0.00000754,0.00009306,0.00014843,-0.00023952,-
 0.00033251,0.00036597,0.00035067,0.00015713,0.00002759,-0.00025608,0.0
 0041432,0.00018332,0.00002703,-0.00009662,0.00009389,-0.00004168,-0.00
 006542,0.00032305,0.00001453,0.00007873,0.00010559,-0.00002728,0.00003
 827,-0.00001746,0.00000125,-0.00020778,0.00037406,-0.00004046,-0.00006
 401,-0.00003336,-0.00002105,-0.00049697,-0.00035304,-0.00011532,-0.000
 04095,0.00006983,-0.00002734,-0.00002552,0.00000799,-0.00000980,0.0075
 9243,0.00096076,0.04368533,0.00080812,0.01496238,-0.03622976,0.0000247
 2,0.00205983,-0.00484270,0.00102989,0.00110121,-0.00373011,-0.11845825
 ,0.06710976,0.02659168,-0.00560948,0.01394739,-0.00760188,-0.00658320,
 0.00031554,-0.00242256,0.00698263,0.00070205,0.00459057,0.00012608,0.0
 0021975,-0.00016249,-0.00006276,0.00025469,0.00164224,-0.00082911,-0.0
 0040799,-0.00010207,0.00013570,0.00051902,-0.00286014,-0.00055531,-0.0
 0035199,0.00025355,-0.00011058,-0.00010335,0.00015956,-0.00051942,-0.0
 0007243,-0.00025785,0.00032575,-0.00002670,-0.00002021,0.00004559,0.00
 000917,-0.00049226,-0.00107915,-0.00001519,0.00006328,0.00003176,0.000
 02257,0.00199329,0.00046644,0.00040399,0.00004842,-0.00004824,0.000014
 92,0.00002988,-0.00002281,0.00000434,-0.03012339,0.02322401,-0.2204377
 2,0.02723701,-0.01446794,-0.00472370,-0.00055156,-0.00005868,0.0106526
 2,-0.00030941,0.00033987,0.00926309,0.00266150,-0.00591119,0.22869906,
 -0.00513257,-0.00026044,-0.00449163,0.00237958,0.00312598,0.00014374,0
 .00026505,-0.00269390,-0.00031243,-0.00206946,-0.00028675,0.00005294,0
 .00015155,0.00009048,-0.00023767,-0.00012608,0.00022498,0.00054543,0.0
 0002590,-0.00003521,-0.00046891,0.00080477,0.00048153,0.00003367,-0.00
 017674,0.00014769,0.00002903,-0.00022172,0.00057550,-0.00000777,0.0001
 4806,0.00009405,-0.00002455,0.00004416,-0.00005572,-0.00000221,-0.0003
 7534,0.00065797,-0.00010072,-0.00011933,-0.00006030,-0.00002748,-0.000
 82924,-0.00066105,-0.00018457,-0.00005594,0.00011428,-0.00002750,-0.00
 005048,0.00001016,-0.00001303,0.00797795,-0.00252274,0.03155958,-0.019
 37335,0.01411532,-0.05857273,0.00019208,-0.00041261,-0.00432453,0.0002
 9662,0.00032606,-0.00501145,-0.23877354,0.12655134,-0.00765977,0.47704
 841,0.00216080,0.00053301,0.00172782,-0.00100178,-0.00130911,-0.000086
 30,-0.00000543,0.00089848,0.00009291,0.00066165,0.00016808,-0.00003346
 ,-0.00005471,0.00001561,0.00005272,0.00034540,-0.00012472,-0.00022486,
 -0.00001088,0.00006059,0.00030848,-0.00023316,-0.00008228,-0.00002107,
 0.00006339,-0.00005788,-0.00000554,0.00001467,-0.00027987,-0.00002561,
 -0.00000515,-0.00009199,0.00003397,-0.00001425,0.00003273,0.00001071,0
 .00017397,-0.00020135,0.00002929,0.00004906,0.00002280,0.00001543,0.00
 027627,0.00027192,0.00008657,0.00001910,-0.00004390,0.00001237,0.00001
 916,-0.00000098,0.00000525,-0.00333191,0.00121593,-0.01415890,0.009087
 99,-0.00847534,0.02795007,-0.00015768,0.00000563,0.00226661,-0.0001937
 0,-0.00006750,0.00153971,0.08236983,-0.10619034,-0.00341650,0.11410034
 ,0.43856603,-0.00015195,-0.00009298,-0.00172000,0.00068557,0.00063814,
 0.00015235,-0.00019532,-0.00052088,-0.00019372,-0.00028495,0.00012085,
 0.00005614,0.00006101,0.00000507,-0.00006070,-0.00028835,0.00001852,0.
 00003714,0.00004260,-0.00004470,-0.00013211,0.00015857,-0.00002597,-0.
 00005189,-0.00006997,0.00003893,0.00000731,0.00000914,0.00014357,0.000
 03486,-0.00004258,0.00003045,-0.00000528,0.00001315,-0.00001412,-0.000
 00872,-0.00004116,0.00005908,-0.00001934,-0.00002295,-0.00000852,-0.00
 001182,-0.00014637,-0.00009394,0.00001511,-0.00000719,0.00001974,-0.00
 000948,-0.00001209,0.00000147,-0.00000631,-0.00316018,0.00442590,-0.00
 006413,-0.02263186,0.01453435,0.00031051,0.00045447,-0.00058102,0.0020
 6146,0.00060796,-0.00028906,0.00058162,-0.02966325,0.00965938,-0.03803
 477,0.12137321,0.05442969,0.06640154,0.00038596,-0.00001251,0.00043030
 ,-0.00013167,-0.00022140,0.00003688,0.00003386,0.00016154,0.00005534,0
 .00012742,0.00003188,-0.00000238,-0.00000749,0.00001758,-0.00001892,0.
 00001417,-0.00002131,-0.00006458,-0.00001505,0.00000275,0.00002987,-0.
 00003958,-0.00004060,0.00000312,0.00001928,-0.00001557,-0.00000261,0.0
 0001777,-0.00005553,0.00000753,-0.00000300,-0.00001358,0.00000802,-0.0
 0000677,0.00000437,-0.00000463,0.00004490,-0.00004494,0.00001170,0.000
 01305,0.00000666,0.00000084,0.00005210,0.00006576,0.00001489,0.0000048
 8,-0.00001300,-0.00000029,0.00000795,-0.00000159,0.00000062,-0.0000243
 1,0.00055949,-0.00226251,-0.00117510,-0.00096196,0.00377018,0.00000053
 ,-0.00002151,0.00016088,-0.00000312,-0.00008263,-0.00008342,-0.0443969
 5,-0.01191242,-0.01270739,-0.22203032,-0.20433299,-0.06668750,0.267111
 47,0.00065074,-0.00005753,0.00063937,-0.00032913,-0.00038384,-0.000012
 80,-0.00001348,0.00045976,-0.00002000,0.00030069,-0.00001132,-0.000006
 26,-0.00002288,-0.00005911,0.00007540,-0.00004254,-0.00003806,-0.00007
 504,-0.00000946,-0.00001516,0.00002987,-0.00012789,-0.00007382,0.00001
 310,0.00002803,-0.00001968,0.00000453,0.00003784,-0.00005069,0.0000153
 8,-0.00003725,-0.00000311,-0.00001075,-0.00000567,0.00000106,-0.000001
 80,0.00003360,-0.00010081,0.00001729,0.00001142,0.00000657,0.00000281,
 0.00012253,0.00007047,0.00001307,0.00000979,-0.00001405,0.00000540,0.0
 0000411,-0.00000188,0.00000125,-0.00027870,0.00079649,-0.00288698,0.00
 209982,-0.00034480,0.00362955,-0.00011067,-0.00018239,0.00050811,-0.00
 024874,-0.00008855,0.00048277,0.03465324,0.01830301,0.00759651,-0.2536
 2694,-0.32486556,-0.08245395,0.21690152,0.30667302,-0.00051927,0.00058
 868,-0.00046416,0.00017407,0.00001344,-0.00014373,0.00021353,-0.000228
 79,-0.00004425,-0.00019212,-0.00000452,0.00000378,-0.00002915,0.000063
 96,-0.00000960,0.00008422,0.00003341,0.00007738,-0.00002300,-0.0000111
 9,0.00001706,0.00015037,0.00006076,0.00000548,0.00001157,-0.00001427,0
 .00002135,-0.00003409,-0.00005971,-0.00000665,0.00006871,-0.00004291,0
 .00000345,-0.00000832,0.00000593,0.00000631,0.00006244,0.00006916,0.00
 000780,0.00001057,0.00000259,0.00000590,-0.00008709,0.00002217,-0.0000
 3819,0.00000002,-0.00000934,0.00000651,0.00000791,0.00000084,0.0000062
 4,-0.00103204,-0.00262160,0.00144697,-0.00300052,-0.00132610,-0.001270
 12,-0.00000798,0.00005143,-0.00050815,0.00014434,0.00050200,-0.0000773
 4,-0.00102760,0.00106023,-0.00085438,-0.07227063,-0.07058935,-0.029339
 76,0.07730406,0.07243316,0.03114810\\-0.00003692,-0.00006934,0.0000056
 6,0.00005686,0.00001908,0.00001427,0.00001241,0.00000858,-0.00001119,-
 0.00001485,-0.00000497,-0.00000147,-0.00002445,0.00001964,-0.00001095,
 -0.00000085,-0.00003039,0.00000236,0.00000867,0.00000531,0.00001427,-0
 .00000614,0.00001712,-0.00002234,-0.00001835,-0.00000775,-0.00002075,-
 0.00000486,-0.00001223,0.00000831,0.00001280,-0.00004300,0.00000317,0.
 00002740,-0.00002652,0.00001268,0.00000112,-0.00003088,-0.00001413,0.0
 0002103,-0.00004243,0.00000231,-0.00002511,-0.00004458,-0.00000998,-0.
 00002301,-0.00003219,-0.00002295,0.00000104,-0.00004735,-0.00000773,-0
 .00599190,0.00861566,-0.10636548,-0.00074735,0.00025273,0.02814584,0.0
 0000735,0.00003658,0.00002745,-0.00001033,0.00003551,-0.00000739,0.006
 70554,-0.00871594,0.07820851,0.00011337,0.00009721,0.00004186,-0.00006
 346,0.00000014,0.00000768\\\@


 EDUCATION WITHOUT COMMON SENSE IS A LOAD OF BOOKS ON THE BACK OF AN ASS.
 Job cpu time:       0 days  8 hours  3 minutes 33.5 seconds.
 Elapsed time:       0 days  8 hours  4 minutes 40.4 seconds.
 File lengths (MBytes):  RWF=   1952 Int=      0 D2E=      0 Chk=     64 Scr=     32
 Normal termination of Gaussian 16 at Fri Dec  7 14:30:04 2018.
