 Entering Gaussian System, Link 0=g16
 Input=rxn908.com
 Output=rxn908.log
 Initial command:
 /shared/centos7/gaussian/g16/l1.exe "/scratch/dinius.ab/QMscratch/Gau-46878.inp" -scrdir="/scratch/dinius.ab/QMscratch/"
 Entering Link 1 = /shared/centos7/gaussian/g16/l1.exe PID=     46879.
  
 Copyright (c) 1988,1990,1992,1993,1995,1998,2003,2009,2016,
            Gaussian, Inc.  All Rights Reserved.
  
 This is part of the Gaussian(R) 16 program.  It is based on
 the Gaussian(R) 09 system (copyright 2009, Gaussian, Inc.),
 the Gaussian(R) 03 system (copyright 2003, Gaussian, Inc.),
 the Gaussian(R) 98 system (copyright 1998, Gaussian, Inc.),
 the Gaussian(R) 94 system (copyright 1995, Gaussian, Inc.),
 the Gaussian 92(TM) system (copyright 1992, Gaussian, Inc.),
 the Gaussian 90(TM) system (copyright 1990, Gaussian, Inc.),
 the Gaussian 88(TM) system (copyright 1988, Gaussian, Inc.),
 the Gaussian 86(TM) system (copyright 1986, Carnegie Mellon
 University), and the Gaussian 82(TM) system (copyright 1983,
 Carnegie Mellon University). Gaussian is a federally registered
 trademark of Gaussian, Inc.
  
 This software contains proprietary and confidential information,
 including trade secrets, belonging to Gaussian, Inc.
  
 This software is provided under written license and may be
 used, copied, transmitted, or stored only in accord with that
 written license.
  
 The following legend is applicable only to US Government
 contracts under FAR:
  
                    RESTRICTED RIGHTS LEGEND
  
 Use, reproduction and disclosure by the US Government is
 subject to restrictions as set forth in subparagraphs (a)
 and (c) of the Commercial Computer Software - Restricted
 Rights clause in FAR 52.227-19.
  
 Gaussian, Inc.
 340 Quinnipiac St., Bldg. 40, Wallingford CT 06492
  
  
 ---------------------------------------------------------------
 Warning -- This program may not be used in any manner that
 competes with the business of Gaussian, Inc. or will provide
 assistance to any competitor of Gaussian, Inc.  The licensee
 of this program is prohibited from giving any competitor of
 Gaussian, Inc. access to this program.  By using this program,
 the user acknowledges that Gaussian, Inc. is engaged in the
 business of creating and licensing software in the field of
 computational chemistry and represents and warrants to the
 licensee that it is not a competitor of Gaussian, Inc. and that
 it will not use this program in any manner prohibited above.
 ---------------------------------------------------------------
  

 Cite this work as:
 Gaussian 16, Revision A.03,
 M. J. Frisch, G. W. Trucks, H. B. Schlegel, G. E. Scuseria, 
 M. A. Robb, J. R. Cheeseman, G. Scalmani, V. Barone, 
 G. A. Petersson, H. Nakatsuji, X. Li, M. Caricato, A. V. Marenich, 
 J. Bloino, B. G. Janesko, R. Gomperts, B. Mennucci, H. P. Hratchian, 
 J. V. Ortiz, A. F. Izmaylov, J. L. Sonnenberg, D. Williams-Young, 
 F. Ding, F. Lipparini, F. Egidi, J. Goings, B. Peng, A. Petrone, 
 T. Henderson, D. Ranasinghe, V. G. Zakrzewski, J. Gao, N. Rega, 
 G. Zheng, W. Liang, M. Hada, M. Ehara, K. Toyota, R. Fukuda, 
 J. Hasegawa, M. Ishida, T. Nakajima, Y. Honda, O. Kitao, H. Nakai, 
 T. Vreven, K. Throssell, J. A. Montgomery, Jr., J. E. Peralta, 
 F. Ogliaro, M. J. Bearpark, J. J. Heyd, E. N. Brothers, K. N. Kudin, 
 V. N. Staroverov, T. A. Keith, R. Kobayashi, J. Normand, 
 K. Raghavachari, A. P. Rendell, J. C. Burant, S. S. Iyengar, 
 J. Tomasi, M. Cossi, J. M. Millam, M. Klene, C. Adamo, R. Cammi, 
 J. W. Ochterski, R. L. Martin, K. Morokuma, O. Farkas, 
 J. B. Foresman, and D. J. Fox, Gaussian, Inc., Wallingford CT, 2016.
 
 ******************************************
 Gaussian 16:  EM64L-G16RevA.03 25-Dec-2016
                15-Jan-2019 
 ******************************************
 ----------------------------------------------------------------------
 #m062x/6-311+g(2df,2p) Opt=(ModRedun,Loose,maxcycle=1000) Int(Grid=SG1
 ) freq
 ----------------------------------------------------------------------
 1/6=1000,7=-1,18=120,19=15,26=2,38=1/1,3;
 2/9=110,12=2,17=6,18=5,40=1/2;
 3/5=4,6=6,7=214,11=2,25=1,30=1,71=1,74=-55,75=1/1,2,3;
 4//1;
 5/5=2,38=5/2;
 6/7=2,8=2,9=2,10=2,28=1/1;
 7//1,2,3,16;
 1/6=1000,7=-1,18=20,19=15,26=2/3(2);
 2/9=110/2;
 99//99;
 2/9=110/2;
 3/5=4,6=6,7=214,11=2,25=1,30=1,71=1,74=-55,75=1/1,2,3;
 4/5=5,16=3,69=1/1;
 5/5=2,38=5/2;
 7//1,2,3,16;
 1/6=1000,7=-1,18=20,19=15,26=2/3(-5);
 2/9=110/2;
 6/7=2,8=2,9=2,10=2,19=2,28=1/1;
 99/9=1/99;
 -----
 Title
 -----
 Symbolic Z-matrix:
 Charge =  0 Multiplicity = 2
 C                    -7.64787   0.01584  -1.48222 
 C                    -6.57528   0.90813  -1.34815 
 C                    -7.61887  -1.1912   -0.77799 
 C                    -6.52408  -1.51418   0.02735 
 H                    -8.4477   -1.89169  -0.85091 
 C                    -5.46678   0.59714  -0.54199 
 H                    -6.59999   1.85757  -1.88147 
 C                    -5.44038  -0.632     0.15421 
 H                    -6.52483  -2.46275   0.55937 
 C                    -4.3842    1.48238  -0.41216 
 C                    -3.29008   1.1595    0.39226 
 H                    -4.38657   2.43286  -0.94114 
 C                    -3.26409  -0.0516    1.07735 
 H                    -2.45923   1.85422   0.4821 
 C                    -4.33238  -0.94227   0.95974 
 H                    -4.29453  -1.88372   1.50283 
 H                    -2.4128   -0.30457   1.70367 
 C                    -8.84448   0.37866  -2.31969 
 H                    -8.59021   1.06362  -3.15363 
 H                    -9.59532   0.86116  -1.68264 
 H                    -9.29085  -0.52697  -2.75013 
 O                    -8.61066   1.54119  -4.01049 
 O                    -8.37522   2.96631  -3.83484 
 H                    -9.26553   3.25787  -4.1017 
 
 The following ModRedundant input section has been read:
 B      18      19 F                                                           
 B      19      22 F                                                           
 

 GradGradGradGradGradGradGradGradGradGradGradGradGradGradGradGradGradGrad
 Berny optimization.
 Initialization pass.
                           ----------------------------
                           !    Initial Parameters    !
                           ! (Angstroms and Degrees)  !
 --------------------------                            --------------------------
 ! Name  Definition              Value          Derivative Info.                !
 --------------------------------------------------------------------------------
 ! R1    R(1,2)                  1.4016         estimate D2E/DX2                !
 ! R2    R(1,3)                  1.3978         estimate D2E/DX2                !
 ! R3    R(1,18)                 1.5049         estimate D2E/DX2                !
 ! R4    R(2,6)                  1.4055         estimate D2E/DX2                !
 ! R5    R(2,7)                  1.0893         estimate D2E/DX2                !
 ! R6    R(3,4)                  1.3969         estimate D2E/DX2                !
 ! R7    R(3,5)                  1.0876         estimate D2E/DX2                !
 ! R8    R(4,8)                  1.4031         estimate D2E/DX2                !
 ! R9    R(4,9)                  1.0876         estimate D2E/DX2                !
 ! R10   R(6,8)                  1.4129         estimate D2E/DX2                !
 ! R11   R(6,10)                 1.4045         estimate D2E/DX2                !
 ! R12   R(8,15)                 1.4046         estimate D2E/DX2                !
 ! R13   R(10,11)                1.3959         estimate D2E/DX2                !
 ! R14   R(10,12)                1.0878         estimate D2E/DX2                !
 ! R15   R(11,13)                1.3917         estimate D2E/DX2                !
 ! R16   R(11,14)                1.0867         estimate D2E/DX2                !
 ! R17   R(13,15)                1.3958         estimate D2E/DX2                !
 ! R18   R(13,17)                1.0867         estimate D2E/DX2                !
 ! R19   R(15,16)                1.0875         estimate D2E/DX2                !
 ! R20   R(18,19)                1.1087         Frozen                          !
 ! R21   R(18,20)                1.0965         estimate D2E/DX2                !
 ! R22   R(18,21)                1.0976         estimate D2E/DX2                !
 ! R23   R(19,22)                0.9812         Frozen                          !
 ! R24   R(22,23)                1.4551         estimate D2E/DX2                !
 ! R25   R(23,24)                0.9741         estimate D2E/DX2                !
 ! A1    A(2,1,3)              119.0565         estimate D2E/DX2                !
 ! A2    A(2,1,18)             120.5444         estimate D2E/DX2                !
 ! A3    A(3,1,18)             120.335          estimate D2E/DX2                !
 ! A4    A(1,2,6)              121.1677         estimate D2E/DX2                !
 ! A5    A(1,2,7)              119.3864         estimate D2E/DX2                !
 ! A6    A(6,2,7)              119.4455         estimate D2E/DX2                !
 ! A7    A(1,3,4)              120.4227         estimate D2E/DX2                !
 ! A8    A(1,3,5)              120.4362         estimate D2E/DX2                !
 ! A9    A(4,3,5)              119.141          estimate D2E/DX2                !
 ! A10   A(3,4,8)              120.8006         estimate D2E/DX2                !
 ! A11   A(3,4,9)              118.8896         estimate D2E/DX2                !
 ! A12   A(8,4,9)              120.3095         estimate D2E/DX2                !
 ! A13   A(2,6,8)              119.3321         estimate D2E/DX2                !
 ! A14   A(2,6,10)             121.4328         estimate D2E/DX2                !
 ! A15   A(8,6,10)             119.235          estimate D2E/DX2                !
 ! A16   A(4,8,6)              119.2084         estimate D2E/DX2                !
 ! A17   A(4,8,15)             121.4826         estimate D2E/DX2                !
 ! A18   A(6,8,15)             119.3088         estimate D2E/DX2                !
 ! A19   A(6,10,11)            120.7749         estimate D2E/DX2                !
 ! A20   A(6,10,12)            120.2733         estimate D2E/DX2                !
 ! A21   A(11,10,12)           118.9518         estimate D2E/DX2                !
 ! A22   A(10,11,13)           119.9753         estimate D2E/DX2                !
 ! A23   A(10,11,14)           119.936          estimate D2E/DX2                !
 ! A24   A(13,11,14)           120.0888         estimate D2E/DX2                !
 ! A25   A(11,13,15)           119.9682         estimate D2E/DX2                !
 ! A26   A(11,13,17)           120.061          estimate D2E/DX2                !
 ! A27   A(15,13,17)           119.9707         estimate D2E/DX2                !
 ! A28   A(8,15,13)            120.7377         estimate D2E/DX2                !
 ! A29   A(8,15,16)            120.337          estimate D2E/DX2                !
 ! A30   A(13,15,16)           118.9253         estimate D2E/DX2                !
 ! A31   A(1,18,19)            112.6531         estimate D2E/DX2                !
 ! A32   A(1,18,20)            109.101          estimate D2E/DX2                !
 ! A33   A(1,18,21)            110.0398         estimate D2E/DX2                !
 ! A34   A(19,18,20)           108.7943         estimate D2E/DX2                !
 ! A35   A(19,18,21)           107.941          estimate D2E/DX2                !
 ! A36   A(20,18,21)           108.2059         estimate D2E/DX2                !
 ! A37   A(18,19,22)           162.3224         estimate D2E/DX2                !
 ! A38   A(19,22,23)           111.5874         estimate D2E/DX2                !
 ! A39   A(22,23,24)            96.4417         estimate D2E/DX2                !
 ! D1    D(3,1,2,6)              1.2541         estimate D2E/DX2                !
 ! D2    D(3,1,2,7)           -178.9874         estimate D2E/DX2                !
 ! D3    D(18,1,2,6)           178.354          estimate D2E/DX2                !
 ! D4    D(18,1,2,7)            -1.8874         estimate D2E/DX2                !
 ! D5    D(2,1,3,4)             -1.2315         estimate D2E/DX2                !
 ! D6    D(2,1,3,5)            178.849          estimate D2E/DX2                !
 ! D7    D(18,1,3,4)          -178.3376         estimate D2E/DX2                !
 ! D8    D(18,1,3,5)             1.7428         estimate D2E/DX2                !
 ! D9    D(2,1,18,19)           29.38           estimate D2E/DX2                !
 ! D10   D(2,1,18,20)          -91.5487         estimate D2E/DX2                !
 ! D11   D(2,1,18,21)          149.8795         estimate D2E/DX2                !
 ! D12   D(3,1,18,19)         -153.5572         estimate D2E/DX2                !
 ! D13   D(3,1,18,20)           85.5141         estimate D2E/DX2                !
 ! D14   D(3,1,18,21)          -33.0578         estimate D2E/DX2                !
 ! D15   D(1,2,6,8)             -0.5687         estimate D2E/DX2                !
 ! D16   D(1,2,6,10)           179.4821         estimate D2E/DX2                !
 ! D17   D(7,2,6,8)            179.6729         estimate D2E/DX2                !
 ! D18   D(7,2,6,10)            -0.2763         estimate D2E/DX2                !
 ! D19   D(1,3,4,8)              0.5377         estimate D2E/DX2                !
 ! D20   D(1,3,4,9)           -179.6225         estimate D2E/DX2                !
 ! D21   D(5,3,4,8)           -179.5417         estimate D2E/DX2                !
 ! D22   D(5,3,4,9)              0.2981         estimate D2E/DX2                !
 ! D23   D(3,4,8,6)              0.1597         estimate D2E/DX2                !
 ! D24   D(3,4,8,15)          -179.9901         estimate D2E/DX2                !
 ! D25   D(9,4,8,6)           -179.6778         estimate D2E/DX2                !
 ! D26   D(9,4,8,15)             0.1724         estimate D2E/DX2                !
 ! D27   D(2,6,8,4)             -0.1445         estimate D2E/DX2                !
 ! D28   D(2,6,8,15)          -179.998          estimate D2E/DX2                !
 ! D29   D(10,6,8,4)           179.8058         estimate D2E/DX2                !
 ! D30   D(10,6,8,15)           -0.0477         estimate D2E/DX2                !
 ! D31   D(2,6,10,11)         -179.9967         estimate D2E/DX2                !
 ! D32   D(2,6,10,12)           -0.0964         estimate D2E/DX2                !
 ! D33   D(8,6,10,11)            0.0541         estimate D2E/DX2                !
 ! D34   D(8,6,10,12)          179.9544         estimate D2E/DX2                !
 ! D35   D(4,8,15,13)         -179.8402         estimate D2E/DX2                !
 ! D36   D(4,8,15,16)            0.1614         estimate D2E/DX2                !
 ! D37   D(6,8,15,13)            0.0099         estimate D2E/DX2                !
 ! D38   D(6,8,15,16)         -179.9885         estimate D2E/DX2                !
 ! D39   D(6,10,11,13)          -0.0218         estimate D2E/DX2                !
 ! D40   D(6,10,11,14)         179.9367         estimate D2E/DX2                !
 ! D41   D(12,10,11,13)       -179.9234         estimate D2E/DX2                !
 ! D42   D(12,10,11,14)          0.0351         estimate D2E/DX2                !
 ! D43   D(10,11,13,15)         -0.0169         estimate D2E/DX2                !
 ! D44   D(10,11,13,17)        179.9745         estimate D2E/DX2                !
 ! D45   D(14,11,13,15)       -179.9754         estimate D2E/DX2                !
 ! D46   D(14,11,13,17)          0.016          estimate D2E/DX2                !
 ! D47   D(11,13,15,8)           0.0227         estimate D2E/DX2                !
 ! D48   D(11,13,15,16)       -179.9788         estimate D2E/DX2                !
 ! D49   D(17,13,15,8)        -179.9687         estimate D2E/DX2                !
 ! D50   D(17,13,15,16)          0.0298         estimate D2E/DX2                !
 ! D51   D(1,18,19,22)         154.4949         estimate D2E/DX2                !
 ! D52   D(20,18,19,22)        -84.4013         estimate D2E/DX2                !
 ! D53   D(21,18,19,22)         32.7979         estimate D2E/DX2                !
 ! D54   D(18,19,22,23)        135.3379         estimate D2E/DX2                !
 ! D55   D(19,22,23,24)       -113.1127         estimate D2E/DX2                !
 --------------------------------------------------------------------------------
 Trust Radius=3.00D-01 FncErr=1.00D-05 GrdErr=1.00D-04 EigMax=2.50D+02 EigMin=1.00D-04
 Number of steps in this run=    144 maximum allowed number of steps=    144.
 GradGradGradGradGradGradGradGradGradGradGradGradGradGradGradGradGradGrad

                          Input orientation:                          
 ---------------------------------------------------------------------
 Center     Atomic      Atomic             Coordinates (Angstroms)
 Number     Number       Type             X           Y           Z
 ---------------------------------------------------------------------
      1          6           0       -7.647870    0.015840   -1.482220
      2          6           0       -6.575280    0.908130   -1.348150
      3          6           0       -7.618870   -1.191200   -0.777990
      4          6           0       -6.524080   -1.514180    0.027350
      5          1           0       -8.447700   -1.891690   -0.850910
      6          6           0       -5.466780    0.597140   -0.541990
      7          1           0       -6.599990    1.857570   -1.881470
      8          6           0       -5.440380   -0.632000    0.154210
      9          1           0       -6.524830   -2.462750    0.559370
     10          6           0       -4.384200    1.482380   -0.412160
     11          6           0       -3.290080    1.159500    0.392260
     12          1           0       -4.386570    2.432860   -0.941140
     13          6           0       -3.264090   -0.051600    1.077350
     14          1           0       -2.459230    1.854220    0.482100
     15          6           0       -4.332380   -0.942270    0.959740
     16          1           0       -4.294530   -1.883720    1.502830
     17          1           0       -2.412800   -0.304570    1.703670
     18          6           0       -8.844480    0.378660   -2.319690
     19          1           0       -8.590210    1.063620   -3.153630
     20          1           0       -9.595320    0.861160   -1.682640
     21          1           0       -9.290850   -0.526970   -2.750130
     22          8           0       -8.610660    1.541190   -4.010490
     23          8           0       -8.375220    2.966310   -3.834840
     24          1           0       -9.265530    3.257870   -4.101700
 ---------------------------------------------------------------------
                    Distance matrix (angstroms):
                    1          2          3          4          5
     1  C    0.000000
     2  C    1.401644   0.000000
     3  C    1.397758   2.412747   0.000000
     4  C    2.425421   2.786074   1.396944   0.000000
     5  H    2.162626   3.404731   1.087641   2.148062   0.000000
     6  C    2.445219   1.405482   2.808086   2.428931   3.895586
     7  H    2.156252   1.089255   3.398644   3.875313   4.305001
     8  C    2.823227   2.432506   2.434650   1.403118   3.411900
     9  H    3.401870   3.873501   2.145296   1.087580   2.452025
    10  C    3.734610   2.450851   4.212476   3.708319   5.299895
    11  C    4.879751   3.726225   5.062973   4.211945   6.120153
    12  H    4.095220   2.698316   4.858826   4.591955   5.933182
    13  C    5.076758   4.215224   4.868787   3.724134   5.828716
    14  H    5.844671   4.602909   6.122442   5.298672   7.188222
    15  C    4.227720   3.712268   3.725948   2.449486   4.595183
    16  H    4.874807   4.596122   4.090594   2.698980   4.773780
    17  H    6.136653   5.301932   5.835059   4.601720   6.742763
    18  C    1.504948   2.524579   2.518615   3.804694   2.732991
    19  H    2.186197   2.709959   3.416340   4.586129   3.749225
    20  H    2.132439   3.038870   2.989469   4.242502   3.096286
    21  H    2.145139   3.376297   2.669467   4.042771   2.486041
    22  O    3.105770   3.410512   4.347259   5.476610   4.668422
    23  O    3.843063   3.695878   5.215485   6.198227   5.701689
    24  H    4.470935   4.510073   5.792475   6.880194   6.144465
                    6          7          8          9         10
     6  C    0.000000
     7  H    2.160337   0.000000
     8  C    1.412861   3.418574   0.000000
     9  H    3.419852   4.962712   2.166064   0.000000
    10  C    1.404452   2.685026   2.430410   4.592409   0.000000
    11  C    2.434563   4.075862   2.808902   4.859242   1.395866
    12  H    2.167035   2.472733   3.421063   5.548935   1.087767
    13  C    2.809799   4.850544   2.434192   4.088322   2.413790
    14  H    3.416777   4.767847   3.895646   5.930540   2.154872
    15  C    2.431427   4.588424   1.404568   2.697961   2.786346
    16  H    3.422006   5.546700   2.167614   2.489906   3.873739
    17  H    3.896519   5.921202   3.416764   4.782881   3.399462
    18  C    3.823193   2.723407   4.327761   4.662979   4.975034
    19  H    4.098058   2.491932   4.872203   5.521544   5.038009
    20  H    4.291344   3.162968   4.781953   5.050039   5.399612
    21  H    4.556645   3.698828   4.824142   4.727674   5.794722
    22  O    4.775532   2.945440   5.667288   6.423850   5.551072
    23  O    4.991478   2.862936   6.121572   7.225491   5.463060
    24  H    5.846496   3.741038   6.919222   7.871626   6.371221
                   11         12         13         14         15
    11  C    0.000000
    12  H    2.145155   0.000000
    13  C    1.391685   3.392168   0.000000
    14  H    1.086747   2.464767   2.152736   0.000000
    15  C    2.413682   3.873988   1.395840   3.399586   0.000000
    16  H    3.391677   4.961282   2.144645   4.287471   1.087524
    17  H    2.152421   4.287693   1.086722   2.480880   2.155198
    18  C    6.230228   5.098343   6.547195   7.127322   5.732239
    19  H    6.377610   4.943735   6.892928   7.171645   6.250802
    20  H    6.644567   5.491005   6.966717   7.523034   6.158983
    21  H    6.980547   6.007079   7.155237   7.923914   6.206612
    22  O    6.916536   5.297067   7.550424   7.623742   7.012449
    23  O    6.855041   4.956551   7.704612   7.407540   7.389827
    24  H    7.765619   5.871459   8.590252   8.325093   8.221637
                   16         17         18         19         20
    16  H    0.000000
    17  H    2.464743   0.000000
    18  C    6.358622   7.617134   0.000000
    19  H    6.987296   7.976572   1.108729   0.000000
    20  H    6.766089   8.025872   1.096540   1.793055   0.000000
    21  H    6.700123   8.197156   1.097584   1.784288   1.777397
    22  O    7.794593   8.629712   2.065176   0.981173   2.617419
    23  O    8.286467   8.770644   3.035098   2.032362   3.248425
    24  H    9.086118   9.661946   3.412139   2.483873   3.421232
                   21         22         23         24
    21  H    0.000000
    22  O    2.515641   0.000000
    23  O    3.770674   1.455078   0.000000
    24  H    4.019004   1.839610   0.974101   0.000000
 Stoichiometry    C11H11O2(2)
 Framework group  C1[X(C11H11O2)]
 Deg. of freedom    66
 Full point group                 C1      NOp   1
 Largest Abelian subgroup         C1      NOp   1
 Largest concise Abelian subgroup C1      NOp   1
                         Standard orientation:                         
 ---------------------------------------------------------------------
 Center     Atomic      Atomic             Coordinates (Angstroms)
 Number     Number       Type             X           Y           Z
 ---------------------------------------------------------------------
      1          6           0        1.107943    0.933095    0.108217
      2          6           0        0.482207   -0.320863    0.133682
      3          6           0        0.318560    2.084338    0.035836
      4          6           0       -1.072948    1.984526   -0.036267
      5          1           0        0.779728    3.069367    0.033605
      6          6           0       -0.916576   -0.437392    0.061524
      7          1           0        1.091449   -1.220840    0.206780
      8          6           0       -1.704889    0.731813   -0.026215
      9          1           0       -1.662639    2.896276   -0.097970
     10          6           0       -1.548768   -1.691432    0.075772
     11          6           0       -2.939179   -1.791198    0.003350
     12          1           0       -0.958225   -2.602528    0.142110
     13          6           0       -3.715341   -0.639341   -0.083751
     14          1           0       -3.414070   -2.768631    0.014394
     15          6           0       -3.102718    0.614793   -0.098259
     16          1           0       -3.725558    1.503685   -0.166439
     17          1           0       -4.797905   -0.715406   -0.140620
     18          6           0        2.604402    1.043590    0.223425
     19          1           0        3.130701    0.156951   -0.184200
     20          1           0        2.875316    1.160641    1.279504
     21          1           0        2.959336    1.927663   -0.321670
     22          8           0        3.815688   -0.423619   -0.579717
     23          8           0        3.914067   -1.692644    0.125370
     24          1           0        4.807668   -1.548645    0.485391
 ---------------------------------------------------------------------
 Rotational constants (GHZ):           1.5936164           0.4340342           0.3453407
 Standard basis: 6-311+G(2df,2p) (5D, 7F)
 There are   606 symmetry adapted cartesian basis functions of A   symmetry.
 There are   541 symmetry adapted basis functions of A   symmetry.
   541 basis functions,   797 primitive gaussians,   606 cartesian basis functions
    47 alpha electrons       46 beta electrons
       nuclear repulsion energy       720.7544815913 Hartrees.
 NAtoms=   24 NActive=   24 NUniq=   24 SFac= 1.00D+00 NAtFMM=   60 NAOKFM=F Big=F
 Integral buffers will be    131072 words long.
 Raffenetti 2 integral format.
 Two-electron integral symmetry is turned on.
 One-electron integrals computed using PRISM.
 NBasis=   541 RedAO= T EigKep=  1.27D-06  NBF=   541
 NBsUse=   538 1.00D-06 EigRej=  9.73D-07 NBFU=   538
 ExpMin= 4.38D-02 ExpMax= 8.59D+03 ExpMxC= 1.30D+03 IAcc=2 IRadAn=         4 AccDes= 0.00D+00
 Harris functional with IExCor= 1009 and IRadAn=       4 diagonalized for initial guess.
 HarFok:  IExCor= 1009 AccDes= 0.00D+00 IRadAn=         4 IDoV= 1 UseB2=F ITyADJ=14
 ICtDFT=  3500011 ScaDFX=  1.000000  1.000000  1.000000  1.000000
 FoFCou: FMM=F IPFlag=           0 FMFlag=      100000 FMFlg1=           0
         NFxFlg=           0 DoJE=T BraDBF=F KetDBF=T FulRan=T
         wScrn=  0.000000 ICntrl=       500 IOpCl=  0 I1Cent=   200000004 NGrid=           0
         NMat0=    1 NMatS0=      1 NMatT0=    0 NMatD0=    1 NMtDS0=    0 NMtDT0=    0
 Petite list used in FoFCou.
 Initial guess <Sx>= 0.0000 <Sy>= 0.0000 <Sz>= 0.5000 <S**2>= 0.7500 S= 0.5000
 Requested convergence on RMS density matrix=1.00D-08 within 128 cycles.
 Requested convergence on MAX density matrix=1.00D-06.
 Requested convergence on             energy=1.00D-06.
 No special actions if energy rises.
 SCF Done:  E(UM062X) =  -575.956083004     A.U. after   20 cycles
            NFock= 20  Conv=0.75D-08     -V/T= 2.0033
 <Sx>= 0.0000 <Sy>= 0.0000 <Sz>= 0.5000 <S**2>= 0.7570 S= 0.5035
 <L.S>= 0.000000000000E+00
 Annihilation of the first spin contaminant:
 S**2 before annihilation     0.7570,   after     0.7500

 **********************************************************************

            Population analysis using the SCF density.

 **********************************************************************

 Orbital symmetries:
 Alpha Orbitals:
       Occupied  (A) (A) (A) (A) (A) (A) (A) (A) (A) (A) (A) (A)
                 (A) (A) (A) (A) (A) (A) (A) (A) (A) (A) (A) (A)
                 (A) (A) (A) (A) (A) (A) (A) (A) (A) (A) (A) (A)
                 (A) (A) (A) (A) (A) (A) (A) (A) (A) (A) (A)
       Virtual   (A) (A) (A) (A) (A) (A) (A) (A) (A) (A) (A) (A)
                 (A) (A) (A) (A) (A) (A) (A) (A) (A) (A) (A) (A)
                 (A) (A) (A) (A) (A) (A) (A) (A) (A) (A) (A) (A)
                 (A) (A) (A) (A) (A) (A) (A) (A) (A) (A) (A) (A)
                 (A) (A) (A) (A) (A) (A) (A) (A) (A) (A) (A) (A)
                 (A) (A) (A) (A) (A) (A) (A) (A) (A) (A) (A) (A)
                 (A) (A) (A) (A) (A) (A) (A) (A) (A) (A) (A) (A)
                 (A) (A) (A) (A) (A) (A) (A) (A) (A) (A) (A) (A)
                 (A) (A) (A) (A) (A) (A) (A) (A) (A) (A) (A) (A)
                 (A) (A) (A) (A) (A) (A) (A) (A) (A) (A) (A) (A)
                 (A) (A) (A) (A) (A) (A) (A) (A) (A) (A) (A) (A)
                 (A) (A) (A) (A) (A) (A) (A) (A) (A) (A) (A) (A)
                 (A) (A) (A) (A) (A) (A) (A) (A) (A) (A) (A) (A)
                 (A) (A) (A) (A) (A) (A) (A) (A) (A) (A) (A) (A)
                 (A) (A) (A) (A) (A) (A) (A) (A) (A) (A) (A) (A)
                 (A) (A) (A) (A) (A) (A) (A) (A) (A) (A) (A) (A)
                 (A) (A) (A) (A) (A) (A) (A) (A) (A) (A) (A) (A)
                 (A) (A) (A) (A) (A) (A) (A) (A) (A) (A) (A) (A)
                 (A) (A) (A) (A) (A) (A) (A) (A) (A) (A) (A) (A)
                 (A) (A) (A) (A) (A) (A) (A) (A) (A) (A) (A) (A)
                 (A) (A) (A) (A) (A) (A) (A) (A) (A) (A) (A) (A)
                 (A) (A) (A) (A) (A) (A) (A) (A) (A) (A) (A) (A)
                 (A) (A) (A) (A) (A) (A) (A) (A) (A) (A) (A) (A)
                 (A) (A) (A) (A) (A) (A) (A) (A) (A) (A) (A) (A)
                 (A) (A) (A) (A) (A) (A) (A) (A) (A) (A) (A) (A)
                 (A) (A) (A) (A) (A) (A) (A) (A) (A) (A) (A) (A)
                 (A) (A) (A) (A) (A) (A) (A) (A) (A) (A) (A) (A)
                 (A) (A) (A) (A) (A) (A) (A) (A) (A) (A) (A) (A)
                 (A) (A) (A) (A) (A) (A) (A) (A) (A) (A) (A) (A)
                 (A) (A) (A) (A) (A) (A) (A) (A) (A) (A) (A) (A)
                 (A) (A) (A) (A) (A) (A) (A) (A) (A) (A) (A) (A)
                 (A) (A) (A) (A) (A) (A) (A) (A) (A) (A) (A) (A)
                 (A) (A) (A) (A) (A) (A) (A) (A) (A) (A) (A) (A)
                 (A) (A) (A) (A) (A) (A) (A) (A) (A) (A) (A) (A)
                 (A) (A) (A) (A) (A) (A) (A) (A) (A) (A) (A) (A)
                 (A) (A) (A) (A) (A) (A) (A) (A) (A) (A) (A) (A)
                 (A) (A) (A) (A) (A) (A) (A) (A) (A) (A) (A) (A)
                 (A) (A) (A) (A) (A) (A) (A) (A) (A) (A) (A) (A)
                 (A) (A) (A) (A) (A) (A) (A) (A) (A) (A) (A) (A)
                 (A) (A) (A) (A) (A) (A) (A) (A) (A) (A) (A) (A)
                 (A) (A) (A) (A) (A) (A) (A) (A) (A) (A) (A)
 Beta  Orbitals:
       Occupied  (A) (A) (A) (A) (A) (A) (A) (A) (A) (A) (A) (A)
                 (A) (A) (A) (A) (A) (A) (A) (A) (A) (A) (A) (A)
                 (A) (A) (A) (A) (A) (A) (A) (A) (A) (A) (A) (A)
                 (A) (A) (A) (A) (A) (A) (A) (A) (A) (A)
       Virtual   (A) (A) (A) (A) (A) (A) (A) (A) (A) (A) (A) (A)
                 (A) (A) (A) (A) (A) (A) (A) (A) (A) (A) (A) (A)
                 (A) (A) (A) (A) (A) (A) (A) (A) (A) (A) (A) (A)
                 (A) (A) (A) (A) (A) (A) (A) (A) (A) (A) (A) (A)
                 (A) (A) (A) (A) (A) (A) (A) (A) (A) (A) (A) (A)
                 (A) (A) (A) (A) (A) (A) (A) (A) (A) (A) (A) (A)
                 (A) (A) (A) (A) (A) (A) (A) (A) (A) (A) (A) (A)
                 (A) (A) (A) (A) (A) (A) (A) (A) (A) (A) (A) (A)
                 (A) (A) (A) (A) (A) (A) (A) (A) (A) (A) (A) (A)
                 (A) (A) (A) (A) (A) (A) (A) (A) (A) (A) (A) (A)
                 (A) (A) (A) (A) (A) (A) (A) (A) (A) (A) (A) (A)
                 (A) (A) (A) (A) (A) (A) (A) (A) (A) (A) (A) (A)
                 (A) (A) (A) (A) (A) (A) (A) (A) (A) (A) (A) (A)
                 (A) (A) (A) (A) (A) (A) (A) (A) (A) (A) (A) (A)
                 (A) (A) (A) (A) (A) (A) (A) (A) (A) (A) (A) (A)
                 (A) (A) (A) (A) (A) (A) (A) (A) (A) (A) (A) (A)
                 (A) (A) (A) (A) (A) (A) (A) (A) (A) (A) (A) (A)
                 (A) (A) (A) (A) (A) (A) (A) (A) (A) (A) (A) (A)
                 (A) (A) (A) (A) (A) (A) (A) (A) (A) (A) (A) (A)
                 (A) (A) (A) (A) (A) (A) (A) (A) (A) (A) (A) (A)
                 (A) (A) (A) (A) (A) (A) (A) (A) (A) (A) (A) (A)
                 (A) (A) (A) (A) (A) (A) (A) (A) (A) (A) (A) (A)
                 (A) (A) (A) (A) (A) (A) (A) (A) (A) (A) (A) (A)
                 (A) (A) (A) (A) (A) (A) (A) (A) (A) (A) (A) (A)
                 (A) (A) (A) (A) (A) (A) (A) (A) (A) (A) (A) (A)
                 (A) (A) (A) (A) (A) (A) (A) (A) (A) (A) (A) (A)
                 (A) (A) (A) (A) (A) (A) (A) (A) (A) (A) (A) (A)
                 (A) (A) (A) (A) (A) (A) (A) (A) (A) (A) (A) (A)
                 (A) (A) (A) (A) (A) (A) (A) (A) (A) (A) (A) (A)
                 (A) (A) (A) (A) (A) (A) (A) (A) (A) (A) (A) (A)
                 (A) (A) (A) (A) (A) (A) (A) (A) (A) (A) (A) (A)
                 (A) (A) (A) (A) (A) (A) (A) (A) (A) (A) (A) (A)
                 (A) (A) (A) (A) (A) (A) (A) (A) (A) (A) (A) (A)
                 (A) (A) (A) (A) (A) (A) (A) (A) (A) (A) (A) (A)
                 (A) (A) (A) (A) (A) (A) (A) (A) (A) (A) (A) (A)
                 (A) (A) (A) (A) (A) (A) (A) (A) (A) (A) (A) (A)
                 (A) (A) (A) (A) (A) (A) (A) (A) (A) (A) (A) (A)
                 (A) (A) (A) (A) (A) (A) (A) (A) (A) (A) (A) (A)
                 (A) (A) (A) (A) (A) (A) (A) (A) (A) (A) (A) (A)
                 (A) (A) (A) (A) (A) (A) (A) (A) (A) (A) (A) (A)
                 (A) (A) (A) (A) (A) (A) (A) (A) (A) (A) (A) (A)
 The electronic state is 2-A.
 Alpha  occ. eigenvalues --  -19.70185 -19.69270 -10.56092 -10.55388 -10.55232
 Alpha  occ. eigenvalues --  -10.55165 -10.55074 -10.54994 -10.54798 -10.54705
 Alpha  occ. eigenvalues --  -10.54680 -10.54615 -10.54544  -1.26890  -1.05571
 Alpha  occ. eigenvalues --   -0.98924  -0.93520  -0.88084  -0.86487  -0.82222
 Alpha  occ. eigenvalues --   -0.78948  -0.71835  -0.68970  -0.68553  -0.63998
 Alpha  occ. eigenvalues --   -0.60480  -0.59155  -0.58474  -0.55532  -0.53506
 Alpha  occ. eigenvalues --   -0.51998  -0.51807  -0.50151  -0.48424  -0.47972
 Alpha  occ. eigenvalues --   -0.46555  -0.46095  -0.44734  -0.42728  -0.40076
 Alpha  occ. eigenvalues --   -0.39608  -0.39319  -0.39012  -0.34946  -0.31704
 Alpha  occ. eigenvalues --   -0.29298  -0.26187
 Alpha virt. eigenvalues --   -0.02556   0.00772   0.01160   0.01732   0.01899
 Alpha virt. eigenvalues --    0.03042   0.03327   0.03475   0.04881   0.05140
 Alpha virt. eigenvalues --    0.05426   0.06285   0.07218   0.07545   0.07747
 Alpha virt. eigenvalues --    0.08503   0.08834   0.10248   0.10766   0.11229
 Alpha virt. eigenvalues --    0.11939   0.12647   0.13228   0.13693   0.14232
 Alpha virt. eigenvalues --    0.14539   0.15051   0.15286   0.16167   0.16384
 Alpha virt. eigenvalues --    0.17217   0.17749   0.18166   0.18473   0.19126
 Alpha virt. eigenvalues --    0.19337   0.19549   0.19734   0.20766   0.20968
 Alpha virt. eigenvalues --    0.21464   0.21955   0.22073   0.22986   0.23191
 Alpha virt. eigenvalues --    0.24206   0.24315   0.24708   0.25151   0.25342
 Alpha virt. eigenvalues --    0.26086   0.26772   0.27312   0.27521   0.28054
 Alpha virt. eigenvalues --    0.28534   0.28984   0.29957   0.31092   0.31482
 Alpha virt. eigenvalues --    0.31915   0.32527   0.33186   0.33932   0.34264
 Alpha virt. eigenvalues --    0.35279   0.36287   0.36588   0.37652   0.38509
 Alpha virt. eigenvalues --    0.39122   0.40126   0.41747   0.43789   0.45395
 Alpha virt. eigenvalues --    0.47305   0.48791   0.49876   0.50655   0.51256
 Alpha virt. eigenvalues --    0.53158   0.53685   0.54083   0.54729   0.55195
 Alpha virt. eigenvalues --    0.55951   0.56502   0.56576   0.56894   0.57562
 Alpha virt. eigenvalues --    0.58705   0.58904   0.59590   0.60073   0.60759
 Alpha virt. eigenvalues --    0.61410   0.61440   0.63428   0.64435   0.64880
 Alpha virt. eigenvalues --    0.65638   0.66259   0.66816   0.66954   0.68140
 Alpha virt. eigenvalues --    0.68261   0.68765   0.69174   0.69555   0.69907
 Alpha virt. eigenvalues --    0.72117   0.72673   0.73135   0.73652   0.73991
 Alpha virt. eigenvalues --    0.74826   0.75615   0.75680   0.76360   0.76966
 Alpha virt. eigenvalues --    0.77650   0.78604   0.79302   0.80002   0.80787
 Alpha virt. eigenvalues --    0.82192   0.83450   0.84125   0.84732   0.85037
 Alpha virt. eigenvalues --    0.85432   0.86763   0.88279   0.88955   0.90296
 Alpha virt. eigenvalues --    0.91667   0.92054   0.92999   0.94145   0.95530
 Alpha virt. eigenvalues --    0.96688   0.98607   0.99618   1.00438   1.01988
 Alpha virt. eigenvalues --    1.03372   1.03550   1.03977   1.05520   1.06634
 Alpha virt. eigenvalues --    1.07654   1.08737   1.09452   1.11302   1.11594
 Alpha virt. eigenvalues --    1.12146   1.13476   1.14021   1.14828   1.16231
 Alpha virt. eigenvalues --    1.16773   1.17480   1.17834   1.19833   1.20488
 Alpha virt. eigenvalues --    1.21100   1.21652   1.23017   1.23499   1.24679
 Alpha virt. eigenvalues --    1.27033   1.28049   1.29925   1.30448   1.30911
 Alpha virt. eigenvalues --    1.31650   1.32274   1.33223   1.34307   1.35011
 Alpha virt. eigenvalues --    1.35489   1.36620   1.36920   1.37731   1.38799
 Alpha virt. eigenvalues --    1.39127   1.40137   1.40318   1.40724   1.42569
 Alpha virt. eigenvalues --    1.44349   1.46454   1.46522   1.47190   1.48344
 Alpha virt. eigenvalues --    1.49013   1.50298   1.50462   1.51640   1.52626
 Alpha virt. eigenvalues --    1.53878   1.55364   1.57268   1.57857   1.61495
 Alpha virt. eigenvalues --    1.62207   1.65011   1.67163   1.70091   1.70595
 Alpha virt. eigenvalues --    1.74308   1.74723   1.75644   1.75863   1.76766
 Alpha virt. eigenvalues --    1.78059   1.80397   1.81434   1.82396   1.84086
 Alpha virt. eigenvalues --    1.88141   1.89711   1.91482   1.93043   1.93827
 Alpha virt. eigenvalues --    2.00761   2.03012   2.03996   2.08544   2.11374
 Alpha virt. eigenvalues --    2.13691   2.17020   2.20642   2.24291   2.31630
 Alpha virt. eigenvalues --    2.35181   2.38123   2.41865   2.47603   2.48050
 Alpha virt. eigenvalues --    2.53813   2.54544   2.55594   2.59730   2.61771
 Alpha virt. eigenvalues --    2.64234   2.64605   2.66212   2.67332   2.68814
 Alpha virt. eigenvalues --    2.70080   2.71232   2.74058   2.74851   2.75380
 Alpha virt. eigenvalues --    2.76089   2.76963   2.77496   2.78207   2.78937
 Alpha virt. eigenvalues --    2.80462   2.81620   2.82713   2.83420   2.83661
 Alpha virt. eigenvalues --    2.83922   2.85081   2.85624   2.86267   2.86971
 Alpha virt. eigenvalues --    2.87428   2.88093   2.88644   2.89358   2.90898
 Alpha virt. eigenvalues --    2.91301   2.91876   2.94294   2.95232   2.96548
 Alpha virt. eigenvalues --    2.97418   2.99809   3.01720   3.02050   3.03111
 Alpha virt. eigenvalues --    3.05218   3.08011   3.09554   3.09831   3.11469
 Alpha virt. eigenvalues --    3.11990   3.13443   3.13744   3.14827   3.15850
 Alpha virt. eigenvalues --    3.17178   3.17811   3.18945   3.19215   3.19709
 Alpha virt. eigenvalues --    3.20213   3.22033   3.22647   3.23207   3.23868
 Alpha virt. eigenvalues --    3.24538   3.25930   3.27631   3.29187   3.30181
 Alpha virt. eigenvalues --    3.30226   3.31400   3.32645   3.33400   3.35148
 Alpha virt. eigenvalues --    3.35359   3.37217   3.38270   3.38328   3.40611
 Alpha virt. eigenvalues --    3.42468   3.42998   3.43917   3.44706   3.46912
 Alpha virt. eigenvalues --    3.47377   3.48531   3.49879   3.50269   3.51074
 Alpha virt. eigenvalues --    3.51806   3.52246   3.54838   3.55738   3.57241
 Alpha virt. eigenvalues --    3.59278   3.59718   3.62015   3.64294   3.65019
 Alpha virt. eigenvalues --    3.66064   3.67147   3.67539   3.68828   3.70338
 Alpha virt. eigenvalues --    3.70682   3.73781   3.74390   3.75099   3.76285
 Alpha virt. eigenvalues --    3.76937   3.77833   3.78583   3.79385   3.80234
 Alpha virt. eigenvalues --    3.82498   3.82796   3.84858   3.86388   3.88856
 Alpha virt. eigenvalues --    3.89498   3.92854   3.95059   3.95744   3.96129
 Alpha virt. eigenvalues --    3.98284   3.99023   3.99955   4.01838   4.04605
 Alpha virt. eigenvalues --    4.04999   4.07506   4.08054   4.08874   4.10849
 Alpha virt. eigenvalues --    4.12854   4.13295   4.14516   4.15441   4.15814
 Alpha virt. eigenvalues --    4.17326   4.20624   4.22013   4.23337   4.25767
 Alpha virt. eigenvalues --    4.26850   4.29731   4.30909   4.31401   4.31863
 Alpha virt. eigenvalues --    4.33146   4.34658   4.36387   4.37006   4.37802
 Alpha virt. eigenvalues --    4.38780   4.40409   4.41083   4.43399   4.43908
 Alpha virt. eigenvalues --    4.46179   4.46386   4.48335   4.49852   4.50927
 Alpha virt. eigenvalues --    4.51754   4.52378   4.53272   4.54864   4.55856
 Alpha virt. eigenvalues --    4.58528   4.59053   4.59998   4.60571   4.62676
 Alpha virt. eigenvalues --    4.64647   4.69175   4.73984   4.76031   4.76775
 Alpha virt. eigenvalues --    4.78072   4.79553   4.84287   4.88625   4.92187
 Alpha virt. eigenvalues --    4.94282   4.94550   4.96008   4.97977   5.04753
 Alpha virt. eigenvalues --    5.10302   5.11716   5.14053   5.16422   5.17232
 Alpha virt. eigenvalues --    5.18843   5.21991   5.23146   5.23780   5.24693
 Alpha virt. eigenvalues --    5.29594   5.32065   5.35631   5.44805   5.46470
 Alpha virt. eigenvalues --    5.49473   5.50905   5.54324   5.55956   5.57335
 Alpha virt. eigenvalues --    5.62752   5.66116   5.69902   5.72384   5.72710
 Alpha virt. eigenvalues --    5.76482   5.81427   5.84746   5.87469   5.89598
 Alpha virt. eigenvalues --    5.99661   6.10389   6.12890   6.41738   6.53972
 Alpha virt. eigenvalues --    6.62973   6.81850   6.87975   6.93571   7.06045
 Alpha virt. eigenvalues --    7.11629   7.21532   7.28522   7.36069   7.47401
 Alpha virt. eigenvalues --    7.65184   7.68812   7.99283  23.91036  24.20770
 Alpha virt. eigenvalues --   24.53786  24.57912  24.62633  24.63955  24.66536
 Alpha virt. eigenvalues --   24.77036  24.83267  25.06493  25.23471  49.99122
 Alpha virt. eigenvalues --   50.06686
  Beta  occ. eigenvalues --  -19.70072 -19.68218 -10.56111 -10.55234 -10.55162
  Beta  occ. eigenvalues --  -10.55064 -10.54959 -10.54802 -10.54700 -10.54688
  Beta  occ. eigenvalues --  -10.54651 -10.54613 -10.54542  -1.24757  -1.02887
  Beta  occ. eigenvalues --   -0.98842  -0.93254  -0.87841  -0.86006  -0.81782
  Beta  occ. eigenvalues --   -0.77757  -0.71405  -0.68506  -0.68369  -0.61502
  Beta  occ. eigenvalues --   -0.59539  -0.58545  -0.58248  -0.55122  -0.52107
  Beta  occ. eigenvalues --   -0.51696  -0.51020  -0.49026  -0.48357  -0.47761
  Beta  occ. eigenvalues --   -0.46304  -0.45675  -0.44156  -0.41375  -0.39620
  Beta  occ. eigenvalues --   -0.39194  -0.39117  -0.37462  -0.34839  -0.30175
  Beta  occ. eigenvalues --   -0.26322
  Beta virt. eigenvalues --   -0.07189  -0.02322   0.00853   0.01199   0.01766
  Beta virt. eigenvalues --    0.01915   0.03082   0.03370   0.03536   0.05070
  Beta virt. eigenvalues --    0.05255   0.05474   0.06365   0.07251   0.07660
  Beta virt. eigenvalues --    0.07983   0.08528   0.08884   0.10321   0.10879
  Beta virt. eigenvalues --    0.11307   0.12040   0.12658   0.13262   0.13658
  Beta virt. eigenvalues --    0.14238   0.14558   0.15173   0.15269   0.16272
  Beta virt. eigenvalues --    0.16522   0.17191   0.17808   0.18214   0.18481
  Beta virt. eigenvalues --    0.19216   0.19362   0.19562   0.19802   0.20865
  Beta virt. eigenvalues --    0.21013   0.21514   0.22037   0.22151   0.23008
  Beta virt. eigenvalues --    0.23325   0.24244   0.24410   0.24768   0.25212
  Beta virt. eigenvalues --    0.25429   0.26115   0.26814   0.27553   0.27577
  Beta virt. eigenvalues --    0.28100   0.28530   0.29113   0.30080   0.31201
  Beta virt. eigenvalues --    0.31518   0.32000   0.32615   0.33203   0.34082
  Beta virt. eigenvalues --    0.34335   0.35486   0.36339   0.36876   0.37771
  Beta virt. eigenvalues --    0.38613   0.39342   0.40347   0.41845   0.44129
  Beta virt. eigenvalues --    0.45514   0.47452   0.48905   0.50118   0.50740
  Beta virt. eigenvalues --    0.51326   0.53322   0.53822   0.54233   0.54831
  Beta virt. eigenvalues --    0.55254   0.56172   0.56586   0.56644   0.56955
  Beta virt. eigenvalues --    0.57669   0.58861   0.59060   0.59740   0.60251
  Beta virt. eigenvalues --    0.60833   0.61552   0.61723   0.63887   0.64538
  Beta virt. eigenvalues --    0.65124   0.65903   0.66543   0.66894   0.66996
  Beta virt. eigenvalues --    0.68208   0.68291   0.68836   0.69199   0.69620
  Beta virt. eigenvalues --    0.69992   0.72238   0.72796   0.73180   0.73686
  Beta virt. eigenvalues --    0.74018   0.74994   0.75665   0.75722   0.76387
  Beta virt. eigenvalues --    0.77131   0.77764   0.78821   0.79481   0.80454
  Beta virt. eigenvalues --    0.81361   0.82370   0.83457   0.84220   0.85070
  Beta virt. eigenvalues --    0.85469   0.85591   0.86905   0.88405   0.88988
  Beta virt. eigenvalues --    0.90374   0.92081   0.92254   0.93293   0.94244
  Beta virt. eigenvalues --    0.95633   0.96925   0.98778   0.99663   1.00523
  Beta virt. eigenvalues --    1.02312   1.03578   1.03652   1.04113   1.05784
  Beta virt. eigenvalues --    1.06829   1.07756   1.08835   1.09552   1.11430
  Beta virt. eigenvalues --    1.11689   1.12360   1.13508   1.14324   1.14974
  Beta virt. eigenvalues --    1.16306   1.17153   1.17520   1.17875   1.19955
  Beta virt. eigenvalues --    1.20544   1.21341   1.21993   1.23329   1.23588
  Beta virt. eigenvalues --    1.24863   1.27171   1.28133   1.29956   1.30629
  Beta virt. eigenvalues --    1.31379   1.31679   1.32481   1.33252   1.34399
  Beta virt. eigenvalues --    1.35140   1.35630   1.36769   1.37019   1.37924
  Beta virt. eigenvalues --    1.38884   1.39160   1.40195   1.40373   1.40856
  Beta virt. eigenvalues --    1.42709   1.44835   1.46536   1.46610   1.47301
  Beta virt. eigenvalues --    1.48946   1.49449   1.50449   1.50606   1.51946
  Beta virt. eigenvalues --    1.52753   1.54374   1.56078   1.57622   1.58147
  Beta virt. eigenvalues --    1.61711   1.62519   1.65439   1.67524   1.70129
  Beta virt. eigenvalues --    1.70728   1.74401   1.74763   1.75687   1.75916
  Beta virt. eigenvalues --    1.76782   1.78187   1.80487   1.81653   1.82646
  Beta virt. eigenvalues --    1.84331   1.88555   1.89751   1.91598   1.93338
  Beta virt. eigenvalues --    1.93968   2.00923   2.03056   2.04090   2.09087
  Beta virt. eigenvalues --    2.11496   2.13879   2.17489   2.20828   2.25578
  Beta virt. eigenvalues --    2.31988   2.36217   2.38914   2.42680   2.48051
  Beta virt. eigenvalues --    2.48540   2.53984   2.54595   2.55610   2.59935
  Beta virt. eigenvalues --    2.61944   2.64357   2.64714   2.66337   2.67460
  Beta virt. eigenvalues --    2.68921   2.70339   2.71343   2.74325   2.74973
  Beta virt. eigenvalues --    2.75493   2.76334   2.77020   2.77662   2.78600
  Beta virt. eigenvalues --    2.78999   2.80685   2.81931   2.82780   2.83463
  Beta virt. eigenvalues --    2.83724   2.83961   2.85147   2.85722   2.86357
  Beta virt. eigenvalues --    2.87022   2.87471   2.88313   2.88677   2.89488
  Beta virt. eigenvalues --    2.90966   2.91430   2.91957   2.94341   2.95377
  Beta virt. eigenvalues --    2.96815   2.97934   2.99837   3.01878   3.02276
  Beta virt. eigenvalues --    3.03461   3.05476   3.08609   3.09944   3.10219
  Beta virt. eigenvalues --    3.11600   3.12346   3.13580   3.14595   3.15228
  Beta virt. eigenvalues --    3.16031   3.17421   3.18335   3.19062   3.19343
  Beta virt. eigenvalues --    3.20060   3.20320   3.22287   3.22917   3.23448
  Beta virt. eigenvalues --    3.24012   3.24730   3.26423   3.27726   3.29599
  Beta virt. eigenvalues --    3.30523   3.30947   3.32820   3.33071   3.33575
  Beta virt. eigenvalues --    3.35419   3.35735   3.37562   3.39157   3.39866
  Beta virt. eigenvalues --    3.40877   3.42707   3.43248   3.44251   3.44780
  Beta virt. eigenvalues --    3.47405   3.47605   3.49026   3.50180   3.50860
  Beta virt. eigenvalues --    3.51393   3.52664   3.52794   3.55018   3.56074
  Beta virt. eigenvalues --    3.57563   3.59842   3.60706   3.63675   3.64523
  Beta virt. eigenvalues --    3.65323   3.66745   3.67617   3.67855   3.69290
  Beta virt. eigenvalues --    3.70909   3.71477   3.74251   3.74571   3.75365
  Beta virt. eigenvalues --    3.76494   3.77105   3.78048   3.78798   3.79986
  Beta virt. eigenvalues --    3.80607   3.82713   3.83149   3.85111   3.87419
  Beta virt. eigenvalues --    3.89386   3.89677   3.93098   3.95809   3.96177
  Beta virt. eigenvalues --    3.96700   3.98749   3.99599   4.01210   4.03117
  Beta virt. eigenvalues --    4.05116   4.06217   4.07812   4.08141   4.09428
  Beta virt. eigenvalues --    4.11122   4.13052   4.13478   4.14814   4.15758
  Beta virt. eigenvalues --    4.15987   4.17924   4.21033   4.22892   4.23460
  Beta virt. eigenvalues --    4.26075   4.27055   4.29995   4.31127   4.31901
  Beta virt. eigenvalues --    4.32177   4.33981   4.34941   4.36533   4.37178
  Beta virt. eigenvalues --    4.38083   4.38982   4.40604   4.41315   4.43641
  Beta virt. eigenvalues --    4.44022   4.46369   4.46673   4.48540   4.50167
  Beta virt. eigenvalues --    4.51059   4.52082   4.52512   4.53524   4.54811
  Beta virt. eigenvalues --    4.56315   4.58862   4.59491   4.60185   4.60861
  Beta virt. eigenvalues --    4.63196   4.65200   4.69469   4.74212   4.76397
  Beta virt. eigenvalues --    4.76983   4.78296   4.79757   4.84985   4.89081
  Beta virt. eigenvalues --    4.92432   4.94547   4.94715   4.96442   4.98317
  Beta virt. eigenvalues --    5.04874   5.10443   5.12160   5.14240   5.17317
  Beta virt. eigenvalues --    5.18124   5.18975   5.22285   5.23395   5.24325
  Beta virt. eigenvalues --    5.25263   5.30212   5.32773   5.37077   5.44987
  Beta virt. eigenvalues --    5.46987   5.50335   5.51099   5.54571   5.56951
  Beta virt. eigenvalues --    5.58059   5.64083   5.67445   5.70034   5.72474
  Beta virt. eigenvalues --    5.73787   5.76787   5.81530   5.85252   5.87933
  Beta virt. eigenvalues --    5.89988   5.99961   6.11216   6.12964   6.41785
  Beta virt. eigenvalues --    6.54036   6.63622   6.82747   6.88207   6.94441
  Beta virt. eigenvalues --    7.06441   7.14876   7.23425   7.29931   7.36870
  Beta virt. eigenvalues --    7.48337   7.66906   7.70678   7.99477  23.91047
  Beta virt. eigenvalues --   24.20782  24.54893  24.57927  24.62831  24.63987
  Beta virt. eigenvalues --   24.66564  24.77076  24.83289  25.06503  25.23484
  Beta virt. eigenvalues --   49.99102  50.06032
          Condensed to atoms (all electrons):
               1          2          3          4          5          6
     1  C   11.773464  -0.737305  -0.376937  -0.224915   0.009558  -1.872574
     2  C   -0.737305   8.168317  -1.807446   0.058667  -0.022699   0.949769
     3  C   -0.376937  -1.807446  10.082188  -0.159700   0.321250   0.363779
     4  C   -0.224915   0.058667  -0.159700   6.882079   0.013280  -1.365624
     5  H    0.009558  -0.022699   0.321250   0.013280   0.478466  -0.047074
     6  C   -1.872574   0.949769   0.363779  -1.365624  -0.047074  13.219797
     7  H   -0.021319   0.405293   0.000228  -0.019266  -0.000122  -0.017573
     8  C    0.617054  -0.133607  -1.587631   0.792041   0.066355  -5.421649
     9  H    0.008144  -0.018087   0.035043   0.406894  -0.006595  -0.054189
    10  C   -1.110431  -0.642796   0.534297  -0.329477  -0.004327   0.759568
    11  C   -0.645718  -0.514679   0.258170   0.082688  -0.001660  -0.450686
    12  H    0.026007   0.076915   0.002979   0.002721  -0.000003  -0.057095
    13  C    0.000635   0.087099  -0.500969  -0.296051   0.001589  -0.078439
    14  H    0.002149  -0.002611  -0.001755   0.000097   0.000000   0.072571
    15  C    0.326883  -0.490772   0.488082   0.032278   0.005993   0.014918
    16  H   -0.000930  -0.001738   0.018505   0.041548  -0.000008  -0.064362
    17  H    0.001674   0.004049  -0.000616   0.000159  -0.000001  -0.007386
    18  C   -1.938073   0.716914  -1.053284   0.115592   0.028647  -0.026739
    19  H    0.054082   0.053521  -0.035265  -0.029775   0.000237   0.028662
    20  H    0.075432  -0.059121  -0.034400  -0.001177   0.000105  -0.019095
    21  H   -0.189522   0.012802   0.047739   0.040299  -0.000358  -0.014051
    22  O   -0.008639  -0.026298   0.005572   0.007101  -0.000091   0.000664
    23  O   -0.117425   0.082231   0.000989   0.007083  -0.000022  -0.030077
    24  H   -0.032068   0.008715   0.002651   0.000355  -0.000001   0.005076
               7          8          9         10         11         12
     1  C   -0.021319   0.617054   0.008144  -1.110431  -0.645718   0.026007
     2  C    0.405293  -0.133607  -0.018087  -0.642796  -0.514679   0.076915
     3  C    0.000228  -1.587631   0.035043   0.534297   0.258170   0.002979
     4  C   -0.019266   0.792041   0.406894  -0.329477   0.082688   0.002721
     5  H   -0.000122   0.066355  -0.006595  -0.004327  -0.001660  -0.000003
     6  C   -0.017573  -5.421649  -0.054189   0.759568  -0.450686  -0.057095
     7  H    0.451059  -0.070924   0.000030   0.063331   0.017385   0.002937
     8  C   -0.070924  15.861072  -0.068647  -0.988369  -0.014482  -0.082913
     9  H    0.000030  -0.068647   0.480546   0.004749   0.001438   0.000014
    10  C    0.063331  -0.988369   0.004749   6.790997   0.595435   0.420442
    11  C    0.017385  -0.014482   0.001438   0.595435   6.407670  -0.013278
    12  H    0.002937  -0.082913   0.000014   0.420442  -0.013278   0.479931
    13  C   -0.001325   0.469853   0.008156  -0.548976   0.454493  -0.012599
    14  H   -0.000005  -0.006473  -0.000003  -0.068604   0.352666  -0.006464
    15  C    0.003965  -3.615239   0.044002   0.616623  -0.202466   0.006734
    16  H    0.000012  -0.043982   0.002455  -0.009259   0.002234   0.000035
    17  H   -0.000003   0.057940  -0.000007   0.010038   0.012339  -0.000091
    18  C   -0.002097  -0.149699   0.000840  -0.052449  -0.023861  -0.001897
    19  H    0.010808  -0.002582   0.000007   0.009376   0.000668   0.000013
    20  H   -0.000213   0.011779   0.000005  -0.007279  -0.001002  -0.000003
    21  H    0.000034   0.001808  -0.000004   0.002167   0.000444   0.000000
    22  O   -0.005336  -0.007940  -0.000003   0.000413  -0.000451  -0.000011
    23  O   -0.002144   0.000885   0.000001  -0.004072  -0.000916   0.000012
    24  H    0.000151   0.000618   0.000000   0.001094   0.000196  -0.000001
              13         14         15         16         17         18
     1  C    0.000635   0.002149   0.326883  -0.000930   0.001674  -1.938073
     2  C    0.087099  -0.002611  -0.490772  -0.001738   0.004049   0.716914
     3  C   -0.500969  -0.001755   0.488082   0.018505  -0.000616  -1.053284
     4  C   -0.296051   0.000097   0.032278   0.041548   0.000159   0.115592
     5  H    0.001589   0.000000   0.005993  -0.000008  -0.000001   0.028647
     6  C   -0.078439   0.072571   0.014918  -0.064362  -0.007386  -0.026739
     7  H   -0.001325  -0.000005   0.003965   0.000012  -0.000003  -0.002097
     8  C    0.469853  -0.006473  -3.615239  -0.043982   0.057940  -0.149699
     9  H    0.008156  -0.000003   0.044002   0.002455  -0.000007   0.000840
    10  C   -0.548976  -0.068604   0.616623  -0.009259   0.010038  -0.052449
    11  C    0.454493   0.352666  -0.202466   0.002234   0.012339  -0.023861
    12  H   -0.012599  -0.006464   0.006734   0.000035  -0.000091  -0.001897
    13  C    6.431657   0.034703  -0.080277   0.016770   0.359404  -0.004178
    14  H    0.034703   0.484153  -0.004161  -0.000107  -0.006587   0.000318
    15  C   -0.080277  -0.004161   8.939469   0.407042  -0.058376  -0.218457
    16  H    0.016770  -0.000107   0.407042   0.484526  -0.006419  -0.000371
    17  H    0.359404  -0.006587  -0.058376  -0.006419   0.481751   0.000096
    18  C   -0.004178   0.000318  -0.218457  -0.000371   0.000096   8.458173
    19  H    0.000021  -0.000000  -0.001675   0.000001  -0.000000   0.010454
    20  H    0.000088   0.000000   0.001558  -0.000000  -0.000000   0.381352
    21  H    0.000150   0.000000  -0.000549  -0.000000  -0.000000   0.470520
    22  O   -0.000143   0.000000   0.000534  -0.000000  -0.000000  -0.095938
    23  O    0.000070  -0.000000   0.000438   0.000000   0.000000   0.143000
    24  H    0.000017  -0.000000  -0.000116   0.000000   0.000000   0.012543
              19         20         21         22         23         24
     1  C    0.054082   0.075432  -0.189522  -0.008639  -0.117425  -0.032068
     2  C    0.053521  -0.059121   0.012802  -0.026298   0.082231   0.008715
     3  C   -0.035265  -0.034400   0.047739   0.005572   0.000989   0.002651
     4  C   -0.029775  -0.001177   0.040299   0.007101   0.007083   0.000355
     5  H    0.000237   0.000105  -0.000358  -0.000091  -0.000022  -0.000001
     6  C    0.028662  -0.019095  -0.014051   0.000664  -0.030077   0.005076
     7  H    0.010808  -0.000213   0.000034  -0.005336  -0.002144   0.000151
     8  C   -0.002582   0.011779   0.001808  -0.007940   0.000885   0.000618
     9  H    0.000007   0.000005  -0.000004  -0.000003   0.000001   0.000000
    10  C    0.009376  -0.007279   0.002167   0.000413  -0.004072   0.001094
    11  C    0.000668  -0.001002   0.000444  -0.000451  -0.000916   0.000196
    12  H    0.000013  -0.000003   0.000000  -0.000011   0.000012  -0.000001
    13  C    0.000021   0.000088   0.000150  -0.000143   0.000070   0.000017
    14  H   -0.000000   0.000000   0.000000   0.000000  -0.000000  -0.000000
    15  C   -0.001675   0.001558  -0.000549   0.000534   0.000438  -0.000116
    16  H    0.000001  -0.000000  -0.000000  -0.000000   0.000000   0.000000
    17  H   -0.000000  -0.000000  -0.000000  -0.000000   0.000000   0.000000
    18  C    0.010454   0.381352   0.470520  -0.095938   0.143000   0.012543
    19  H    0.463516   0.005747  -0.033834   0.060409  -0.066826   0.012869
    20  H    0.005747   0.499960  -0.027796  -0.005948  -0.003217   0.000711
    21  H   -0.033834  -0.027796   0.507233   0.012028   0.001396  -0.000191
    22  O    0.060409  -0.005948   0.012028   8.264251   0.107961  -0.039799
    23  O   -0.066826  -0.003217   0.001396   0.107961   7.878122   0.211611
    24  H    0.012869   0.000711  -0.000191  -0.039799   0.211611   0.550611
          Atomic-Atomic Spin Densities.
               1          2          3          4          5          6
     1  C    0.453869  -0.179873   0.028460   0.052474   0.001200  -0.259286
     2  C   -0.179873   0.264607  -0.070246  -0.012699  -0.005066   0.089840
     3  C    0.028460  -0.070246   0.137182  -0.008931   0.012750  -0.046805
     4  C    0.052474  -0.012699  -0.008931  -0.001165  -0.001480  -0.050422
     5  H    0.001200  -0.005066   0.012750  -0.001480  -0.004443  -0.003511
     6  C   -0.259286   0.089840  -0.046805  -0.050422  -0.003511   0.253443
     7  H    0.002849  -0.001379  -0.000096   0.000395   0.000003  -0.000599
     8  C    0.064783  -0.065382   0.050068  -0.007551  -0.002276  -0.024394
     9  H   -0.001344  -0.000847   0.003708   0.002452   0.000160  -0.002966
    10  C   -0.089471   0.011464   0.001920  -0.011887  -0.000085   0.068447
    11  C   -0.037464  -0.036758   0.003009  -0.008085   0.000013   0.029281
    12  H    0.001045   0.001067   0.000053   0.000155  -0.000000  -0.000940
    13  C   -0.007166  -0.011532   0.008658   0.009873  -0.000082  -0.011642
    14  H    0.000004   0.000006   0.000013   0.000027  -0.000000  -0.000203
    15  C    0.049521  -0.003681   0.012950   0.030109   0.001063  -0.094999
    16  H    0.000024   0.000100  -0.000229  -0.000169  -0.000000   0.000115
    17  H    0.000000  -0.000039  -0.000016  -0.000060   0.000000   0.000106
    18  C   -0.169366   0.062924  -0.107435  -0.004184  -0.002029   0.020491
    19  H   -0.008748  -0.010676   0.007223   0.005852  -0.000149  -0.008867
    20  H    0.002021   0.001528  -0.008291   0.002108  -0.000025  -0.000240
    21  H   -0.003844   0.010018  -0.006534  -0.001905   0.000169   0.004329
    22  O   -0.012083   0.027889  -0.008284  -0.003740   0.000035   0.017492
    23  O    0.021608  -0.015314   0.001683   0.000230   0.000000  -0.006562
    24  H   -0.000600   0.000397   0.000040   0.000019   0.000000   0.000043
               7          8          9         10         11         12
     1  C    0.002849   0.064783  -0.001344  -0.089471  -0.037464   0.001045
     2  C   -0.001379  -0.065382  -0.000847   0.011464  -0.036758   0.001067
     3  C   -0.000096   0.050068   0.003708   0.001920   0.003009   0.000053
     4  C    0.000395  -0.007551   0.002452  -0.011887  -0.008085   0.000155
     5  H    0.000003  -0.002276   0.000160  -0.000085   0.000013  -0.000000
     6  C   -0.000599  -0.024394  -0.002966   0.068447   0.029281  -0.000940
     7  H   -0.002526  -0.001992  -0.000002  -0.000227   0.000667   0.000007
     8  C   -0.001992   0.140413  -0.003845  -0.022175   0.000254   0.000087
     9  H   -0.000002  -0.003845   0.001563  -0.000151   0.000090   0.000000
    10  C   -0.000227  -0.022175  -0.000151   0.066220   0.005882  -0.000682
    11  C    0.000667   0.000254   0.000090   0.005882   0.035315  -0.000747
    12  H    0.000007   0.000087   0.000000  -0.000682  -0.000747  -0.000438
    13  C   -0.000096  -0.014016   0.000112  -0.009685   0.017582  -0.000316
    14  H    0.000000  -0.000093  -0.000000   0.000030   0.000069  -0.000009
    15  C   -0.000160  -0.086758   0.003229  -0.010610  -0.015901   0.000271
    16  H   -0.000000   0.000257  -0.000007  -0.000077   0.000027   0.000000
    17  H    0.000000   0.000491   0.000000  -0.000070   0.000003   0.000001
    18  C   -0.000808  -0.014235  -0.000681  -0.003128  -0.000107  -0.000009
    19  H   -0.000998   0.003083  -0.000001  -0.002208  -0.000234   0.000005
    20  H    0.000016  -0.000998  -0.000003  -0.000386  -0.000019  -0.000000
    21  H    0.000070  -0.001727  -0.000006   0.000504   0.000017  -0.000000
    22  O    0.002150  -0.009431  -0.000007   0.005694   0.000481  -0.000024
    23  O   -0.000705   0.003297   0.000001  -0.003157  -0.000349   0.000018
    24  H    0.000023  -0.000050  -0.000000   0.000032  -0.000000  -0.000000
              13         14         15         16         17         18
     1  C   -0.007166   0.000004   0.049521   0.000024   0.000000  -0.169366
     2  C   -0.011532   0.000006  -0.003681   0.000100  -0.000039   0.062924
     3  C    0.008658   0.000013   0.012950  -0.000229  -0.000016  -0.107435
     4  C    0.009873   0.000027   0.030109  -0.000169  -0.000060  -0.004184
     5  H   -0.000082  -0.000000   0.001063  -0.000000   0.000000  -0.002029
     6  C   -0.011642  -0.000203  -0.094999   0.000115   0.000106   0.020491
     7  H   -0.000096   0.000000  -0.000160  -0.000000   0.000000  -0.000808
     8  C   -0.014016  -0.000093  -0.086758   0.000257   0.000491  -0.014235
     9  H    0.000112  -0.000000   0.003229  -0.000007   0.000000  -0.000681
    10  C   -0.009685   0.000030  -0.010610  -0.000077  -0.000070  -0.003128
    11  C    0.017582   0.000069  -0.015901   0.000027   0.000003  -0.000107
    12  H   -0.000316  -0.000009   0.000271   0.000000   0.000001  -0.000009
    13  C    0.016177  -0.000151   0.014410   0.000016   0.000145  -0.001307
    14  H   -0.000151   0.000380   0.000252  -0.000000  -0.000001  -0.000003
    15  C    0.014410   0.000252   0.110573  -0.000073  -0.000537  -0.016185
    16  H    0.000016  -0.000000  -0.000073   0.000327   0.000009  -0.000004
    17  H    0.000145  -0.000001  -0.000537   0.000009  -0.000769   0.000002
    18  C   -0.001307  -0.000003  -0.016185  -0.000004   0.000002   1.140955
    19  H    0.000064  -0.000000   0.000303  -0.000000   0.000000   0.056997
    20  H   -0.000003  -0.000000  -0.000184  -0.000000   0.000000  -0.009555
    21  H   -0.000018  -0.000000  -0.000156   0.000000  -0.000000  -0.011562
    22  O   -0.000132   0.000000  -0.000306  -0.000000  -0.000000  -0.253259
    23  O    0.000004  -0.000000   0.000167   0.000000   0.000000   0.051351
    24  H   -0.000000  -0.000000  -0.000000   0.000000  -0.000000  -0.001940
              19         20         21         22         23         24
     1  C   -0.008748   0.002021  -0.003844  -0.012083   0.021608  -0.000600
     2  C   -0.010676   0.001528   0.010018   0.027889  -0.015314   0.000397
     3  C    0.007223  -0.008291  -0.006534  -0.008284   0.001683   0.000040
     4  C    0.005852   0.002108  -0.001905  -0.003740   0.000230   0.000019
     5  H   -0.000149  -0.000025   0.000169   0.000035   0.000000   0.000000
     6  C   -0.008867  -0.000240   0.004329   0.017492  -0.006562   0.000043
     7  H   -0.000998   0.000016   0.000070   0.002150  -0.000705   0.000023
     8  C    0.003083  -0.000998  -0.001727  -0.009431   0.003297  -0.000050
     9  H   -0.000001  -0.000003  -0.000006  -0.000007   0.000001  -0.000000
    10  C   -0.002208  -0.000386   0.000504   0.005694  -0.003157   0.000032
    11  C   -0.000234  -0.000019   0.000017   0.000481  -0.000349  -0.000000
    12  H    0.000005  -0.000000  -0.000000  -0.000024   0.000018  -0.000000
    13  C    0.000064  -0.000003  -0.000018  -0.000132   0.000004  -0.000000
    14  H   -0.000000  -0.000000  -0.000000   0.000000  -0.000000  -0.000000
    15  C    0.000303  -0.000184  -0.000156  -0.000306   0.000167  -0.000000
    16  H   -0.000000  -0.000000   0.000000  -0.000000   0.000000   0.000000
    17  H    0.000000   0.000000  -0.000000  -0.000000   0.000000  -0.000000
    18  C    0.056997  -0.009555  -0.011562  -0.253259   0.051351  -0.001940
    19  H   -0.092680   0.001401   0.000854   0.030774   0.004214  -0.000371
    20  H    0.001401  -0.031179   0.004968   0.009905  -0.002673   0.000066
    21  H    0.000854   0.004968  -0.026187   0.006545  -0.001325   0.000025
    22  O    0.030774   0.009905   0.006545   0.596289  -0.078679   0.005118
    23  O    0.004214  -0.002673  -0.001325  -0.078679   0.082514  -0.002225
    24  H   -0.000371   0.000066   0.000025   0.005118  -0.002225  -0.000890
 Mulliken charges and spin densities:
               1          2
     1  C    0.380774  -0.091385
     2  C   -0.167133   0.056346
     3  C   -0.603468   0.010849
     4  C   -0.056897  -0.008584
     5  H    0.157478  -0.003754
     6  C    0.111809  -0.027847
     7  H    0.185094  -0.003407
     8  C    0.314731   0.007811
     9  H    0.155212   0.001457
    10  C   -0.042490   0.006192
    11  C   -0.316625  -0.006976
    12  H    0.155617  -0.000461
    13  C   -0.341747   0.010896
    14  H    0.150111   0.000320
    15  C   -0.216432  -0.006703
    16  H    0.154049   0.000313
    17  H    0.152036  -0.000736
    18  C   -0.771408   0.736924
    19  H    0.459567  -0.014159
    20  H    0.182513  -0.031544
    21  H    0.169685  -0.025766
    22  O   -0.268333   0.336430
    23  O   -0.209098   0.054096
    24  H    0.264957  -0.000312
 Sum of Mulliken charges =  -0.00000   1.00000
 Mulliken charges and spin densities with hydrogens summed into heavy atoms:
               1          2
     1  C    0.380774  -0.091385
     2  C    0.017961   0.052939
     3  C   -0.445990   0.007095
     4  C    0.098315  -0.007127
     6  C    0.111809  -0.027847
     8  C    0.314731   0.007811
    10  C    0.113127   0.005731
    11  C   -0.166514  -0.006655
    13  C   -0.189711   0.010161
    15  C   -0.062383  -0.006391
    18  C   -0.419210   0.679614
    22  O    0.191234   0.322270
    23  O    0.055859   0.053784
 Electronic spatial extent (au):  <R**2>=           3055.3604
 Charge=             -0.0000 electrons
 Dipole moment (field-independent basis, Debye):
    X=              0.4468    Y=              0.9992    Z=              1.3634  Tot=              1.7484
 Quadrupole moment (field-independent basis, Debye-Ang):
   XX=            -62.9350   YY=            -69.7933   ZZ=            -82.4025
   XY=              1.4369   XZ=              7.0447   YZ=             -1.7623
 Traceless Quadrupole moment (field-independent basis, Debye-Ang):
   XX=              8.7753   YY=              1.9170   ZZ=            -10.6922
   XY=              1.4369   XZ=              7.0447   YZ=             -1.7623
 Octapole moment (field-independent basis, Debye-Ang**2):
  XXX=             68.0362  YYY=             -2.6660  ZZZ=              0.3491  XYY=              6.1757
  XXY=            -13.1883  XXZ=             26.8257  XZZ=             21.9229  YZZ=             -3.0373
  YYZ=              0.8290  XYZ=             -6.0784
 Hexadecapole moment (field-independent basis, Debye-Ang**3):
 XXXX=          -2438.7574 YYYY=           -862.2111 ZZZZ=           -116.7445 XXXY=           -126.5606
 XXXZ=            145.2629 YYYX=            -15.4334 YYYZ=            -10.2794 ZZZX=              1.0855
 ZZZY=              0.4961 XXYY=           -582.2223 XXZZ=           -546.9164 YYZZ=           -189.5170
 XXYZ=            -35.7805 YYXZ=              8.5058 ZZXY=            -15.9608
 N-N= 7.207544815913D+02 E-N=-2.784380413535D+03  KE= 5.740575689502D+02
                          Isotropic Fermi Contact Couplings
        Atom                 a.u.       MegaHertz       Gauss      10(-4) cm-1
     1  C(13)             -0.00753      -8.46714      -3.02129      -2.82434
     2  C(13)              0.01222      13.73644       4.90150       4.58198
     3  C(13)              0.03012      33.86023      12.08217      11.29456
     4  C(13)              0.00395       4.44158       1.58487       1.48155
     5  H(1)              -0.00003      -0.12697      -0.04531      -0.04235
     6  C(13)             -0.00218      -2.44666      -0.87303      -0.81612
     7  H(1)              -0.00063      -2.82394      -1.00765      -0.94197
     8  C(13)              0.00145       1.63302       0.58270       0.54472
     9  H(1)               0.00060       2.69021       0.95993       0.89736
    10  C(13)              0.00120       1.35245       0.48259       0.45113
    11  C(13)             -0.00104      -1.17332      -0.41867      -0.39138
    12  H(1)              -0.00013      -0.57932      -0.20672      -0.19324
    13  C(13)              0.00126       1.41568       0.50515       0.47222
    14  H(1)               0.00006       0.25736       0.09183       0.08585
    15  C(13)             -0.00116      -1.30878      -0.46700      -0.43656
    16  H(1)               0.00009       0.38266       0.13654       0.12764
    17  H(1)              -0.00015      -0.66135      -0.23599      -0.22060
    18  C(13)              0.30047     337.78572     120.53034     112.67319
    19  H(1)              -0.02383    -106.51233     -38.00625     -35.52869
    20  H(1)              -0.00612     -27.37709      -9.76883      -9.13201
    21  H(1)              -0.00540     -24.14578      -8.61581      -8.05416
    22  O(17)              0.27287    -165.41518     -59.02425     -55.17657
    23  O(17)              0.01100      -6.66634      -2.37871      -2.22365
    24  H(1)              -0.00038      -1.71072      -0.61043      -0.57063
 --------------------------------------------------------
       Center         ----  Spin Dipole Couplings  ----
                      3XX-RR        3YY-RR        3ZZ-RR
 --------------------------------------------------------
     1   Atom        0.040951     -0.002805     -0.038147
     2   Atom       -0.003411     -0.017630      0.021041
     3   Atom        0.008051     -0.007044     -0.001008
     4   Atom        0.015763      0.000241     -0.016005
     5   Atom       -0.000263      0.005781     -0.005518
     6   Atom        0.006172      0.001586     -0.007758
     7   Atom        0.004059      0.002707     -0.006766
     8   Atom       -0.002365     -0.006472      0.008837
     9   Atom        0.001888     -0.000381     -0.001507
    10   Atom       -0.003031     -0.004861      0.007892
    11   Atom        0.003452      0.002014     -0.005465
    12   Atom        0.000722      0.000510     -0.001232
    13   Atom       -0.003745     -0.005421      0.009166
    14   Atom        0.000750     -0.000257     -0.000493
    15   Atom        0.004528      0.002511     -0.007040
    16   Atom        0.001067     -0.000495     -0.000572
    17   Atom        0.001265     -0.000948     -0.000317
    18   Atom       -0.146374      0.365570     -0.219196
    19   Atom        0.024125      0.113744     -0.137868
    20   Atom       -0.029965     -0.016850      0.046815
    21   Atom       -0.024876      0.038481     -0.013604
    22   Atom        0.136272     -0.552805      0.416533
    23   Atom       -0.009215      0.183635     -0.174420
    24   Atom        0.005757      0.001828     -0.007585
 --------------------------------------------------------
                        XY            XZ            YZ
 --------------------------------------------------------
     1   Atom       -0.013369     -0.001813      0.000116
     2   Atom        0.009611     -0.014315     -0.009293
     3   Atom       -0.019907      0.017852     -0.011704
     4   Atom       -0.001221      0.002532     -0.000430
     5   Atom       -0.004553      0.000259     -0.001732
     6   Atom        0.001789     -0.000206     -0.000438
     7   Atom        0.005764     -0.001190     -0.001621
     8   Atom        0.000008     -0.001002      0.000885
     9   Atom       -0.000966      0.000271      0.000010
    10   Atom        0.001076     -0.000163      0.001188
    11   Atom        0.000415      0.000476     -0.000254
    12   Atom        0.000982     -0.000139     -0.000058
    13   Atom        0.000212     -0.000523      0.001121
    14   Atom        0.000238      0.000016     -0.000016
    15   Atom        0.000214      0.000653     -0.000352
    16   Atom        0.000162      0.000045      0.000028
    17   Atom        0.000212      0.000063      0.000055
    18   Atom       -0.402954     -0.179444      0.321552
    19   Atom       -0.266001     -0.123092      0.145382
    20   Atom       -0.011800      0.017748      0.018165
    21   Atom        0.010858     -0.023255     -0.025661
    22   Atom       -0.678917     -1.217726      0.717907
    23   Atom       -0.220038     -0.069166      0.248552
    24   Atom       -0.010124      0.012116     -0.004299
 --------------------------------------------------------


 ---------------------------------------------------------------------------------
              Anisotropic Spin Dipole Couplings in Principal Axis System
 ---------------------------------------------------------------------------------

       Atom             a.u.   MegaHertz   Gauss  10(-4) cm-1        Axes

              Baa    -0.0382    -5.125    -1.829    -1.709  0.0239  0.0057  0.9997
     1 C(13)  Bbb    -0.0066    -0.880    -0.314    -0.294  0.2704  0.9627 -0.0120
              Bcc     0.0448     6.005     2.143     2.003  0.9624 -0.2706 -0.0214
 
              Baa    -0.0226    -3.031    -1.081    -1.011 -0.4121  0.9092  0.0585
     2 C(13)  Bbb    -0.0083    -1.113    -0.397    -0.371  0.8022  0.3317  0.4965
              Bcc     0.0309     4.144     1.479     1.382 -0.4320 -0.2515  0.8661
 
              Baa    -0.0208    -2.793    -0.997    -0.932  0.5900  0.8055 -0.0558
     3 C(13)  Bbb    -0.0138    -1.848    -0.660    -0.617 -0.3872  0.3429  0.8558
              Bcc     0.0346     4.642     1.656     1.548  0.7085 -0.4833  0.5142
 
              Baa    -0.0162    -2.176    -0.776    -0.726 -0.0782  0.0203  0.9967
     4 C(13)  Bbb     0.0001     0.020     0.007     0.007  0.0802  0.9967 -0.0140
              Bcc     0.0161     2.156     0.769     0.719  0.9937 -0.0789  0.0795
 
              Baa    -0.0058    -3.107    -1.109    -1.036  0.1088  0.1884  0.9761
     5 H(1)   Bbb    -0.0026    -1.385    -0.494    -0.462  0.8791  0.4400 -0.1829
              Bcc     0.0084     4.492     1.603     1.498 -0.4640  0.8780 -0.1177
 
              Baa    -0.0078    -1.044    -0.373    -0.348  0.0090  0.0450  0.9989
     6 C(13)  Bbb     0.0010     0.132     0.047     0.044 -0.3272  0.9441 -0.0396
              Bcc     0.0068     0.912     0.325     0.304  0.9449  0.3265 -0.0232
 
              Baa    -0.0070    -3.757    -1.341    -1.253  0.0298  0.1468  0.9887
     7 H(1)   Bbb    -0.0024    -1.271    -0.454    -0.424 -0.6732  0.7341 -0.0887
              Bcc     0.0094     5.029     1.794     1.677  0.7389  0.6630 -0.1207
 
              Baa    -0.0065    -0.875    -0.312    -0.292 -0.0161  0.9982 -0.0585
     8 C(13)  Bbb    -0.0025    -0.329    -0.117    -0.110  0.9960  0.0212  0.0868
              Bcc     0.0090     1.204     0.430     0.402 -0.0879  0.0569  0.9945
 
              Baa    -0.0015    -0.820    -0.293    -0.274 -0.1058 -0.0971  0.9896
     9 H(1)   Bbb    -0.0007    -0.386    -0.138    -0.129  0.3326  0.9345  0.1272
              Bcc     0.0023     1.206     0.430     0.402  0.9371 -0.3426  0.0666
 
              Baa    -0.0055    -0.732    -0.261    -0.244 -0.4089  0.9085 -0.0858
    10 C(13)  Bbb    -0.0025    -0.341    -0.122    -0.114  0.9126  0.4077 -0.0321
              Bcc     0.0080     1.074     0.383     0.358 -0.0058  0.0915  0.9958
 
              Baa    -0.0055    -0.738    -0.263    -0.246 -0.0548  0.0367  0.9978
    11 C(13)  Bbb     0.0019     0.258     0.092     0.086 -0.2468  0.9678 -0.0491
              Bcc     0.0036     0.480     0.171     0.160  0.9675  0.2490  0.0439
 
              Baa    -0.0012    -0.663    -0.236    -0.221  0.0748 -0.0091  0.9972
    12 H(1)   Bbb    -0.0004    -0.197    -0.070    -0.066 -0.6639  0.7456  0.0566
              Bcc     0.0016     0.860     0.307     0.287  0.7440  0.6663 -0.0498
 
              Baa    -0.0055    -0.744    -0.265    -0.248 -0.1396  0.9870 -0.0802
    13 C(13)  Bbb    -0.0037    -0.500    -0.179    -0.167  0.9894  0.1422  0.0278
              Bcc     0.0093     1.244     0.444     0.415 -0.0388  0.0755  0.9964
 
              Baa    -0.0005    -0.264    -0.094    -0.088 -0.0320  0.1009  0.9944
    14 H(1)   Bbb    -0.0003    -0.164    -0.059    -0.055 -0.2170  0.9705 -0.1054
              Bcc     0.0008     0.429     0.153     0.143  0.9756  0.2191  0.0092
 
              Baa    -0.0071    -0.951    -0.339    -0.317 -0.0568  0.0378  0.9977
    15 C(13)  Bbb     0.0025     0.336     0.120     0.112 -0.0913  0.9949 -0.0429
              Bcc     0.0046     0.615     0.219     0.205  0.9942  0.0935  0.0530
 
              Baa    -0.0006    -0.310    -0.111    -0.103  0.0051 -0.3152  0.9490
    16 H(1)   Bbb    -0.0005    -0.269    -0.096    -0.090 -0.1062  0.9435  0.3139
              Bcc     0.0011     0.579     0.207     0.193  0.9943  0.1024  0.0287
 
              Baa    -0.0010    -0.519    -0.185    -0.173 -0.0922  0.9930 -0.0741
    17 H(1)   Bbb    -0.0003    -0.169    -0.060    -0.056 -0.0493  0.0697  0.9963
              Bcc     0.0013     0.687     0.245     0.229  0.9945  0.0955  0.0425
 
              Baa    -0.3686   -49.458   -17.648   -16.498  0.8848  0.3517  0.3059
    18 C(13)  Bbb    -0.3613   -48.481   -17.299   -16.171 -0.1226 -0.4576  0.8807
              Bcc     0.7299    97.939    34.947    32.669 -0.4497  0.8167  0.3617
 
              Baa    -0.2047  -109.196   -38.964   -36.424  0.2353 -0.2341  0.9433
    19 H(1)   Bbb    -0.2008  -107.143   -38.231   -35.739  0.7572  0.6527 -0.0268
              Bcc     0.4055   216.339    77.195    72.163 -0.6094  0.7205  0.3309
 
              Baa    -0.0436   -23.287    -8.309    -7.768  0.8034  0.5333 -0.2647
    20 H(1)   Bbb    -0.0105    -5.582    -1.992    -1.862 -0.5699  0.8176 -0.0827
              Bcc     0.0541    28.869    10.301     9.630  0.1723  0.2173  0.9608
 
              Baa    -0.0440   -23.457    -8.370    -7.824  0.7433  0.1076  0.6603
[...]
 .00047274,0.00015619,0.00065761,0.00166156,0.00157516,0.00001423,-0.00
 001556,-0.00006959,-0.00343335,0.00039649,-0.00391190,-0.00034601,0.00
 011950,-0.00022273,0.00060056,0.02625553,-0.00428158,-0.00033309,-0.00
 086366,-0.00012586,-0.00118949,-0.00027834,-0.00006161,-0.00177805,-0.
 00320247,-0.00408710,-0.00005764,0.00008950,0.00044496,0.00777363,-0.0
 2325032,0.00387811,0.00020483,-0.00116939,0.00019604,-0.06132643,0.035
 70427,-0.01316242,0.05881767,0.00006042,0.00028584,-0.00003846,-0.0005
 4013,-0.00046632,-0.00016850,0.00037092,-0.00004552,0.00016051,-0.0012
 2906,0.00091600,-0.00099874,0.00003318,-0.00000947,0.00003736,0.001267
 56,0.00154843,0.00096766,0.00012785,-0.00004767,0.00007830,-0.00026658
 ,-0.00703697,0.00107382,0.00065312,0.00030772,0.00028288,-0.00010404,0
 .00054458,-0.00021991,-0.00397270,-0.00036821,-0.00069561,0.00008243,-
 0.00012338,-0.00007598,0.00516702,-0.01503867,0.00443494,0.00031333,-0
 .00082570,0.00023721,0.03515316,-0.31976381,0.04400225,-0.03726217,0.3
 3932607,0.00002212,0.00007056,-0.00003233,0.00014588,0.00066469,-0.000
 00754,0.00006970,-0.00019304,-0.00003461,0.00184684,0.00024642,-0.0025
 3419,-0.00007695,0.00001248,0.00014410,-0.00405148,0.00056098,0.003698
 95,-0.00022134,0.00007669,0.00003973,-0.00136519,0.01266443,0.00167674
 ,-0.00031903,-0.00040399,0.00019735,-0.00002404,-0.00030749,-0.0009483
 0,-0.00401270,-0.00030684,0.00690012,0.00045179,-0.00007581,-0.0009113
 4,0.00058046,-0.00782250,0.00598385,0.00003722,-0.00038945,0.00011067,
 -0.01292474,0.04412140,-0.04828706,0.01762335,-0.04847878,0.03819861,0
 .00006454,-0.00020421,-0.00001037,0.00000064,0.00014591,0.00034037,-0.
 00044824,-0.00025188,0.00007610,-0.00042143,0.00085473,-0.00033282,-0.
 00009100,0.00004451,-0.00003607,0.00006462,-0.00046072,0.00043629,-0.0
 0000437,0.00001779,-0.00002380,0.00010137,-0.00407740,-0.00335727,0.00
 001547,-0.00004345,-0.00004793,0.00226060,0.00028910,-0.00143544,0.000
 62954,-0.00094444,-0.00098723,-0.00008810,-0.00012631,-0.00004346,-0.2
 6423336,0.07656857,-0.10262823,-0.00004072,0.00044834,0.00119266,-0.01
 467908,0.00937731,-0.00928861,-0.00007261,0.00012137,0.00220413,0.2769
 3806,-0.00001401,-0.00040288,0.00005468,0.00048282,0.00016192,0.000094
 02,-0.00040144,0.00009973,-0.00024748,-0.00025198,0.00078688,-0.000190
 87,-0.00009427,0.00004409,-0.00004489,-0.00097672,-0.00087452,-0.00042
 849,-0.00006965,0.00003437,-0.00002912,-0.00369576,-0.00256084,-0.0002
 4514,0.00000586,-0.00001598,0.00002075,-0.00019288,-0.00582999,0.00122
 688,0.02722734,-0.00427107,0.01246833,0.00133958,-0.00036828,0.0006413
 8,0.07691532,-0.08943199,0.03806615,-0.00038804,0.00096010,-0.00062629
 ,-0.01879336,0.01102786,-0.00870921,0.00074029,0.00075197,-0.00037645,
 -0.08177849,0.08984146,-0.00006241,-0.00000929,0.00010336,0.00033662,-
 0.00006000,-0.00069317,0.00011130,-0.00018788,-0.00050111,-0.00026082,
 0.00029250,-0.00000269,-0.00003170,0.00001410,-0.00003502,0.00044954,-
 0.00016319,-0.00061020,-0.00001428,0.00001032,0.00003674,-0.00344388,-
 0.00046501,0.00761344,-0.00005404,-0.00000199,0.00011943,-0.00133539,0
 .00139597,0.00479283,-0.00441469,0.00053196,0.00141596,-0.00021209,-0.
 00000469,-0.00005623,-0.10217960,0.03777214,-0.08544175,0.00134048,-0.
 00021553,-0.00235551,-0.00632035,0.00337875,0.00147112,0.00211163,-0.0
 0062991,-0.00420807,0.11396410,-0.04164488,0.07829842,-0.19061238,0.04
 033972,-0.07093476,-0.04444427,-0.00337573,-0.02075423,-0.01178795,0.0
 1940265,-0.00942423,0.01037777,-0.00003467,0.00351992,0.00083533,-0.00
 171133,0.00093186,0.00405362,-0.00544695,-0.00039457,0.00064979,0.0015
 6176,0.00140302,-0.00754447,-0.00092252,-0.00272803,0.00026711,-0.0001
 1368,0.00007146,-0.00043363,-0.00012893,-0.00038104,-0.00101554,0.0007
 1548,-0.00032207,0.00002624,0.00001681,-0.00002641,-0.00189202,-0.0027
 5171,-0.00053617,-0.00006376,0.00008053,-0.00000326,0.00508545,0.00087
 423,0.00213828,0.00002617,0.00001301,0.00000111,-0.00000184,-0.0000471
 2,0.00001650,0.50287230,0.03677446,-0.11421970,0.02888476,-0.01341230,
 0.01389250,-0.00841750,0.03444605,-0.01479741,0.01893026,-0.00386045,-
 0.00626696,-0.00030247,0.00093227,0.00121102,-0.00022645,-0.00361111,-
 0.00263451,-0.00163583,-0.00148386,0.00086001,-0.00036407,0.00170344,-
 0.00024594,0.00067249,0.00128603,-0.00040213,0.00054014,-0.00065655,0.
 00094903,-0.00030843,-0.00002341,-0.00042782,0.00005658,0.00000984,-0.
 00004070,-0.00000047,0.00050772,0.00067195,0.00013371,-0.00010838,0.00
 003258,-0.00005149,-0.00119910,0.00004391,-0.00050033,-0.00009445,0.00
 004892,-0.00005569,0.00001796,0.00003306,0.00000288,0.01989603,0.55280
 425,-0.02188217,0.01896837,-0.06670174,-0.03461725,-0.01423835,-0.0052
 5592,-0.01511028,0.02238034,-0.00459348,0.01219451,0.00123878,0.008683
 13,0.00062474,-0.00108702,-0.00132720,0.00329124,-0.00288323,0.0084810
 4,0.00175891,0.00033945,-0.00291167,-0.00936825,-0.00124797,-0.0046241
 4,0.00032406,-0.00018005,0.00015077,-0.00001226,-0.00114389,0.00009928
 ,-0.00077351,0.00113038,-0.00096217,-0.00008055,0.00011780,0.00013430,
 -0.00237977,-0.00374604,-0.00054458,0.00008405,0.00008206,0.00003396,0
 .00707455,0.00117088,0.00245897,0.00008219,-0.00004870,0.00007916,0.00
 001425,-0.00007338,0.00007719,-0.00605545,0.01357569,0.40989899,0.0067
 8580,-0.00229431,-0.01026478,-0.00514040,-0.00222399,-0.00072062,-0.00
 122630,0.00294264,-0.00004784,0.00137318,-0.00002703,0.00073359,0.0000
 9424,-0.00008073,0.00001706,0.00074115,-0.00048557,0.00082986,0.000094
 90,0.00003059,-0.00008846,-0.00133406,0.00001200,-0.00068078,0.0001318
 7,-0.00002229,-0.00012206,-0.00008633,-0.00025991,-0.00011421,-0.00003
 595,0.00014062,-0.00004393,-0.00000596,0.00002174,0.00000712,-0.000351
 69,-0.00043145,-0.00011107,0.00001512,0.00000886,0.00000803,0.00089511
 ,0.00018591,0.00047278,0.00000972,-0.00000793,0.00000369,0.00001745,-0
 .00001236,-0.00000272,0.01609526,0.00287665,0.01178617,-0.01509703,-0.
 00636118,0.00133464,0.00099467,0.00204686,0.00191680,0.00031046,0.0021
 0463,-0.00218602,0.00034030,-0.00127835,-0.00035656,-0.00068121,-0.000
 16902,-0.00040969,0.00031037,-0.00063990,0.00014173,-0.00009098,-0.000
 00653,-0.00011381,-0.00020130,0.00105283,0.00018247,0.00051308,-0.0000
 5407,-0.00000476,0.00007933,-0.00002175,0.00011527,-0.00000023,0.00005
 488,-0.00019939,0.00003838,-0.00001494,-0.00002335,-0.00000718,0.00030
 652,0.00033385,0.00009744,-0.00000159,-0.00000304,0.00000002,-0.000651
 44,-0.00012627,-0.00034906,0.00000067,-0.00000681,0.00001015,-0.000009
 11,0.00000564,0.00000054,0.00497692,0.02211608,-0.01607307,0.02046153,
 -0.03372595,-0.04782552,0.00793051,-0.04204896,0.01654822,0.01101294,0
 .00454850,0.00496683,-0.01188339,0.00383138,-0.00832371,-0.00084925,-0
 .00244409,0.00036156,0.00018765,-0.00060608,-0.00459147,0.00256676,-0.
 00052950,0.00052569,-0.00022501,-0.00114463,0.00576163,0.00035838,0.00
 234731,-0.00015399,0.00006088,-0.00006412,0.00025931,0.00083784,0.0001
 3685,0.00050902,-0.00054336,0.00019173,0.00000251,-0.00005683,-0.00000
 058,0.00144617,0.00213620,0.00040863,-0.00003869,-0.00004033,-0.000031
 22,-0.00403785,-0.00070741,-0.00190811,-0.00006398,0.00002639,-0.00003
 882,-0.00001905,0.00004826,0.00000533,0.04897737,-0.03031708,-0.063247
 30,-0.04528994,0.06060956,0.40065863,0.00045389,0.02475780,0.00438417,
 0.00062585,0.00095707,0.00025310,-0.00421151,0.00032241,-0.00290726,0.
 00109845,0.00138352,-0.00004991,-0.00001683,0.00025623,0.00010103,0.00
 005049,-0.00040919,0.00009537,-0.00061603,-0.00085673,-0.00017660,-0.0
 0038565,-0.00010025,-0.00013199,-0.00035687,0.00011201,-0.00004674,0.0
 0012037,0.00003633,0.00004802,-0.00009817,0.00018975,-0.00005699,-0.00
 002934,-0.00002153,-0.00001133,-0.00021620,-0.00023498,-0.00007409,0.0
 0000022,-0.00000341,-0.00000085,0.00036946,-0.00007186,0.00014788,0.00
 001702,-0.00000565,0.00001436,-0.00000278,-0.00001137,0.00000500,-0.06
 439450,0.05162954,-0.00407127,-0.00097937,0.00346686,0.00487551,0.0601
 9005,-0.00007676,-0.00671003,-0.00215275,-0.00170120,0.00089663,-0.000
 25373,0.00185488,0.00046302,0.00049315,-0.00047595,-0.00036428,0.00009
 036,-0.00005005,0.00032690,-0.00014898,0.00024249,0.00023729,0.0004417
 9,0.00058294,0.00036589,-0.00021269,0.00003308,0.00016403,0.00000105,0
 .00014495,-0.00003299,0.00005627,-0.00004904,-0.00010299,-0.00004842,0
 .00008726,-0.00004576,0.00004297,0.00000242,0.00001920,0.00000334,0.00
 005185,0.00007602,0.00001624,0.00000762,0.00000236,0.00000540,-0.00001
 684,0.00008134,-0.00009480,-0.00001910,-0.00000880,-0.00000269,0.00000
 807,0.00000476,0.00000790,0.05164363,-0.31257825,-0.01656060,0.0010550
 0,-0.00661256,0.00048489,-0.05819990,0.33257654,-0.00856869,0.01804319
 ,-0.00017463,0.00279676,0.00147621,-0.00075716,-0.00336739,-0.00079918
 ,0.00168027,-0.00102709,0.00081048,-0.00068540,0.00001962,-0.00013827,
 -0.00005481,-0.00013700,0.00006716,-0.00025599,-0.00014060,-0.00039104
 ,0.00021128,0.00087083,0.00025651,0.00043843,-0.00013102,0.00005756,-0
 .00035804,-0.00005356,0.00002226,-0.00003464,0.00005660,-0.00019423,0.
 00005826,-0.00001397,-0.00001256,-0.00000075,0.00025257,0.00027487,0.0
 0009095,0.00000199,-0.00000206,0.00000596,-0.00054349,-0.00006006,-0.0
 0021544,0.00001332,-0.00001584,-0.00001242,-0.00000725,0.00000450,0.,0
 .00487338,-0.02691172,-0.02063458,0.00491491,-0.01736079,-0.01904111,0
 .00286265,0.01967313,0.03066117,-0.01434789,-0.01619840,0.00648693,-0.
 00389196,0.00255633,-0.00202280,0.00118284,-0.00145169,-0.00003389,0.0
 0028977,0.00029270,-0.00014001,-0.00038087,0.00118059,0.00004191,0.000
 43969,-0.00136318,-0.00057846,-0.00006101,-0.00000768,0.00026096,-0.00
 013806,0.00006957,-0.00001205,-0.00002411,0.00001921,0.00002495,-0.000
 37140,0.00020553,-0.00019247,-0.00003619,-0.00010371,0.00008548,0.0000
 2416,-0.00000233,-0.00000986,-0.00010626,0.00001508,-0.00006800,-0.000
 03961,0.00000984,-0.00001744,0.00014106,0.00007150,0.00011884,-0.00002
 141,0.00002099,-0.00001045,0.00000425,0.00000629,-0.00000913,-0.228679
 14,-0.12667680,0.02442559,-0.00579528,-0.00376882,0.00477987,0.0077061
 8,0.00530483,-0.00077397,0.24283706,0.00574548,0.00811954,-0.00275654,
 0.00162685,-0.00015620,0.00158636,0.00164927,0.00019223,0.00008664,-0.
 00066837,0.00005481,-0.00057091,-0.00003518,-0.00032452,0.00022372,0.0
 0006920,0.00061932,0.00006061,0.00023387,0.00029215,0.00011314,0.00052
 047,0.00019039,0.00015956,-0.00005674,0.00000673,0.00001623,0.00006565
 ,-0.00004660,0.00003357,0.00004830,-0.00009418,0.00001913,0.00000407,-
 0.00000063,0.00000704,0.00016803,0.00016767,0.00006368,0.00001048,-0.0
 0000498,0.00000007,-0.00038286,-0.00001874,-0.00006232,-0.00000218,-0.
 00000311,0.00000232,0.00000005,0.00000101,-0.00002277,-0.12619274,-0.1
 4671900,0.02756081,-0.00018781,-0.00106339,-0.00558172,-0.02269365,-0.
 01137799,0.00531084,0.13923244,0.14918224,-0.02201832,-0.00847567,-0.0
 0049487,-0.00017181,0.00351344,0.00163203,0.00158090,-0.00260183,-0.00
 061055,-0.00088737,-0.00008802,-0.00053959,0.00007783,0.00022787,0.000
 26020,-0.00133225,-0.00010626,-0.00126013,-0.00001385,0.00009535,0.000
 15586,0.00078875,-0.00022468,0.00049641,-0.00004020,0.00001495,0.00003
 351,0.00012494,0.00029970,-0.00011850,-0.00011445,-0.00009174,0.000033
 71,0.00001540,-0.00001819,-0.00000985,0.00029465,0.00018960,0.00008307
 ,-0.00003105,0.00000829,0.00000016,-0.00058081,-0.00001722,-0.00022584
 ,-0.00001829,0.00000394,-0.00000070,-0.00000441,0.00000833,-0.00000862
 ,0.03839510,0.02852681,-0.02522498,0.01717037,0.00732022,-0.02518094,-
 0.00283871,-0.00273764,0.00087312,-0.02956128,-0.02811068,0.03810517,-
 0.00725841,-0.00100274,-0.00807738,0.00374849,0.00311369,0.00095553,0.
 00067517,-0.00258489,0.00045286,-0.00175950,-0.00031511,-0.00045707,0.
 00009330,0.00005380,-0.00019212,-0.00149478,0.00058614,0.00012494,0.00
 020497,-0.00016694,-0.00070880,0.00097727,-0.00004165,0.00037075,-0.00
 009992,0.00008594,0.00000709,0.00012549,0.00048889,0.00007905,0.000062
 16,0.00012361,-0.00005420,0.00001648,-0.00003750,0.00001010,-0.0000167
 8,0.00047138,-0.00002784,-0.00005467,-0.00003003,-0.00003517,-0.000809
 29,-0.00041785,-0.00043820,-0.00002794,0.00005762,-0.00002794,-0.00002
 356,0.00001045,-0.00000938,0.01025433,0.00274176,0.05010133,0.02643112
 ,-0.01316556,-0.01105863,0.00118995,-0.00148258,-0.00390435,0.00118598
 ,0.00004469,-0.00250712,0.19315957,0.00323821,-0.00040235,0.00156526,-
 0.00145685,-0.00025359,-0.00040033,-0.00094380,0.00087531,0.00002280,-
 0.00003729,0.00001910,0.00014947,0.00017462,0.00003080,-0.00020534,0.0
 0026469,-0.00011449,0.00038885,0.00011160,-0.00002423,-0.00035662,-0.0
 0048143,0.00012035,-0.00031969,-0.00000177,0.00006346,-0.00009464,-0.0
 0012757,0.00008295,-0.00004736,0.00007894,0.00018357,0.00000397,0.0000
 2756,-0.00000899,-0.00000676,-0.00036486,0.00007679,-0.00015217,-0.000
 02964,-0.00001966,-0.00002299,0.00011070,-0.00016354,0.00009925,-0.000
 01345,0.00004291,-0.00003437,-0.00000049,-0.00000218,-0.00001022,-0.00
 019571,0.00465675,-0.01890383,-0.01214039,0.02231741,-0.05549196,-0.00
 023468,0.00200533,-0.00241579,0.00046192,0.00029272,0.00185477,0.15060
 278,0.09924267,0.02013679,-0.00487325,0.00985752,-0.00525392,-0.003497
 89,-0.00152055,-0.00128347,0.00380059,-0.00062741,0.00231635,-0.000058
 42,0.00072829,-0.00009362,0.00031591,0.00011299,0.00199629,-0.00085920
 ,0.00072191,-0.00034928,-0.00005321,0.00019351,-0.00192651,0.00017539,
 -0.00083465,0.00011596,0.00000447,-0.00000926,-0.00026365,-0.00015544,
 -0.00009484,0.00006905,0.00035301,-0.00002607,0.00000897,-0.00000167,0
 .00000903,-0.00085675,-0.00034890,-0.00032588,-0.00002821,-0.00002566,
 -0.00001306,0.00110895,-0.00013005,0.00055388,0.00000271,0.00004784,-0
 .00000528,0.00000081,-0.00001496,-0.00001178,0.00930441,-0.02621343,-0
 .23294138,-0.01358558,-0.05837526,-0.25036351,-0.00212786,0.00152908,0
 .00773097,-0.00253706,0.00245794,0.01387673,-0.06413501,0.03917144,0.5
 1135378,0.00083767,0.00172502,0.00099589,0.00012654,-0.00110210,-0.000
 37683,0.00023471,0.00036796,-0.00005253,0.00058677,0.00017283,0.000081
 69,-0.00011918,0.00003216,0.00016532,0.00022470,0.00005280,-0.00028368
 ,-0.00024394,0.00019051,0.00052803,0.00001473,-0.00015955,0.00013490,0
 .00005053,-0.00007323,0.00004982,0.00010813,-0.00026071,0.00003495,-0.
 00001420,-0.00013302,-0.00000385,-0.00002784,0.00005178,0.00004089,0.0
 0028827,-0.00018527,0.00012901,0.00004290,0.00002408,0.00003890,0.0001
 4445,0.00027547,0.00004417,0.00001366,-0.00004722,0.00003114,0.0000085
 9,0.00000306,0.00001674,0.00036304,-0.00125240,-0.01641572,-0.02097152
 ,-0.00542085,0.03187565,-0.00057815,0.00073322,0.00169059,0.00005372,0
 .00063816,0.00150072,-0.22060698,-0.08840899,0.03199491,0.35752413,0.0
 0037522,0.00116515,0.00093076,0.00017339,-0.00136463,-0.00000535,0.000
 00475,0.00024782,-0.00009782,0.00053791,0.00029478,0.00000965,-0.00009
 197,0.00009153,0.00005110,0.00018426,0.00023057,-0.00033399,-0.0000794
 2,0.00033426,0.00074552,0.00003171,-0.00015320,0.00010894,0.00003290,-
 0.00005638,0.00002150,0.00009692,-0.00028730,-0.00002456,-0.00002392,-
 0.00012818,0.00002396,-0.00000812,0.00006773,0.00005203,0.00029425,-0.
 00015372,0.00011572,0.00004020,0.00002178,0.00003418,0.00007357,0.0002
 9089,0.00005012,0.00000684,-0.00003690,0.00001810,0.00000606,0.0000076
 4,0.00001054,0.00136821,-0.00052944,-0.01329323,-0.01018333,-0.0029589
 2,0.02327718,-0.00036913,0.00080894,0.00233132,0.00001583,0.00090397,0
 .00092308,-0.13285933,-0.11099433,0.03729093,-0.04979139,0.49671631,0.
 00274736,-0.00051827,0.00125793,-0.00135421,-0.00058676,-0.00068779,-0
 .00023558,0.00019360,0.00007418,-0.00001780,0.00013722,0.00007011,0.00
 005460,-0.00000199,-0.00005001,0.00091861,-0.00015311,0.00018625,0.000
 14989,0.00042974,0.00068187,-0.00024027,0.00029101,-0.00014414,-0.0000
 2899,0.00003662,-0.00004980,-0.00020592,-0.00002188,-0.00007853,-0.000
 02205,-0.00006123,0.00004441,0.00004162,-0.00000158,0.00000242,-0.0001
 6882,0.00001064,-0.00008695,-0.00002312,-0.00001290,-0.00002221,0.0001
 2739,-0.00003844,0.00013303,-0.00001024,0.00003249,-0.00001678,-0.0000
 1829,0.00000581,-0.00002106,0.00279840,0.00204009,-0.00178243,0.034780
 92,0.01902063,-0.00345579,-0.00054899,-0.00033251,0.00076872,-0.000341
 75,-0.00023262,-0.00167466,0.03963009,0.03336329,-0.05601347,0.0094996
 4,-0.22928419,0.15022027,0.00022319,0.00019098,0.00024205,-0.00005152,
 0.00007753,-0.00002761,-0.00009361,-0.00005659,-0.00003032,0.00007193,
 0.00004229,0.00000646,-0.00000902,0.00000505,-0.00000602,0.00006241,-0
 .00007084,-0.00000069,0.00005014,-0.00003047,-0.00005251,0.00002987,0.
 00000777,0.00001050,-0.00000570,-0.00000784,0.00000068,-0.00001755,0.0
 0003102,0.00001811,-0.00002743,-0.00003144,0.00000959,0.00000275,-0.00
 002174,-0.00003212,0.00000875,-0.00001481,0.00000653,-0.00000035,0.000
 00173,-0.00000792,0.00002717,0.00000359,0.00001217,0.00000315,-0.00000
 648,0.00000207,0.00000198,-0.00000356,-0.00000145,-0.00003687,-0.00044
 295,-0.00099512,-0.00166101,-0.00290859,0.00051349,0.00006350,0.000319
 21,0.00031516,0.00002849,0.00016251,0.00017126,-0.00597244,-0.05063413
 ,0.02538573,-0.11806074,0.19016457,-0.08753249,0.12536290,-0.00027530,
 -0.00043822,-0.00031809,0.00017626,0.00044382,0.00015514,0.00000231,-0
 .00018581,-0.00003087,-0.00011362,-0.00006159,-0.00002194,0.00000679,-
 0.00001006,0.00000454,-0.00008377,-0.00005467,0.00005623,0.00003144,-0
 .00004521,-0.00013225,0.00002782,0.00002013,0.00001368,-0.00001242,0.0
 0001127,0.00000516,-0.00001511,0.00012582,0.00001703,-0.00000185,0.000
 02168,-0.00001854,-0.00000038,-0.00002301,-0.00001612,-0.00007180,0.00
 004179,-0.00002276,-0.00001569,-0.00000485,-0.00001077,-0.00002779,-0.
 00009312,-0.00003416,-0.00000241,0.00000890,-0.00000112,-0.00000326,-0
 .00000277,-0.00000225,0.00003215,0.00154180,0.00291480,0.00062155,-0.0
 0067337,-0.00384111,0.00010079,-0.00019459,-0.00002648,0.00010995,-0.0
 0021345,-0.00051444,-0.00627656,-0.01802674,0.00946074,0.14256770,-0.3
 8451836,0.17568434,-0.13677680,0.40233060,-0.00005696,-0.00023247,-0.0
 0023602,0.00001608,0.00039527,0.00001280,0.00010328,0.00003371,-0.0000
 5402,0.00005890,-0.00008786,0.00004683,-0.00001161,-0.00000938,-0.0000
 0181,-0.00014827,-0.00015935,-0.00001642,-0.00005002,-0.00018816,-0.00
 026461,-0.00002338,-0.00005418,0.00001947,0.00001822,-0.00001638,0.000
 02078,0.00003499,0.00002748,0.00004099,0.00000790,0.00002049,-0.000016
 72,-0.00002916,-0.00001742,-0.00002139,0.00000933,-0.00003426,0.000016
 10,0.00000969,0.00000696,0.00000732,0.00005308,0.00000133,-0.00001976,
 0.00000633,-0.00001515,0.00000816,0.00001154,-0.00000794,0.00001138,-0
 .00087058,0.00194155,0.00065475,0.00034752,0.00349394,-0.00202361,0.00
 025551,-0.00030079,-0.00029419,0.00008409,-0.00036409,-0.00020074,-0.0
 0009855,0.00184297,-0.00235145,-0.06172035,0.17704450,-0.08935559,0.06
 199243,-0.18332078,0.09401779\\0.00026994,-0.00001734,0.00011541,-0.00
 009945,-0.00008592,-0.00004176,-0.00005131,0.00006465,0.00000424,0.000
 07749,0.00005763,0.00006536,-0.00008704,0.00001325,0.00003287,0.000009
 08,0.00003001,0.00000052,0.00002817,0.00001583,-0.00000593,-0.00006683
 ,-0.00005618,-0.00003668,-0.00004957,-0.00001121,0.00002456,0.00003345
 ,-0.00007176,-0.00004524,-0.00001747,-0.00000057,-0.00005912,0.0000494
 9,-0.00000682,-0.00002373,-0.00000755,-0.00010736,-0.00002934,0.000062
 32,-0.00003172,-0.00004811,0.00004285,-0.00001748,0.00004515,-0.000031
 30,-0.00002613,-0.00000032,0.00000966,-0.00002257,-0.00002977,0.018362
 92,-0.01880937,-0.14536727,-0.00479762,0.00209654,0.00533998,-0.000005
 63,0.00006445,-0.00000954,0.00006894,0.00008805,0.00000780,-0.01369969
 ,0.01684498,0.14009907,-0.00024975,0.00015983,-0.00010413,0.00014891,-
 0.00017078,0.00006598\\\@


 THE FIRST MORNING OF CREATION WROTE WHAT THE LAST DAWN OF
 RECKONING SHALL READ. -- OMAR KHAYYAM
 Job cpu time:       0 days  8 hours 52 minutes 40.8 seconds.
 Elapsed time:       0 days  8 hours 53 minutes 17.8 seconds.
 File lengths (MBytes):  RWF=   1952 Int=      0 D2E=      0 Chk=     64 Scr=     32
 Normal termination of Gaussian 16 at Fri Jan 18 01:12:20 2019.
