 Entering Gaussian System, Link 0=g16
 Input=rxn932.com
 Output=rxn932.log
 Initial command:
 /shared/centos7/gaussian/g16/l1.exe "/scratch/dinius.ab/QMscratch/Gau-37428.inp" -scrdir="/scratch/dinius.ab/QMscratch/"
 Entering Link 1 = /shared/centos7/gaussian/g16/l1.exe PID=     37429.
  
 Copyright (c) 1988,1990,1992,1993,1995,1998,2003,2009,2016,
            Gaussian, Inc.  All Rights Reserved.
  
 This is part of the Gaussian(R) 16 program.  It is based on
 the Gaussian(R) 09 system (copyright 2009, Gaussian, Inc.),
 the Gaussian(R) 03 system (copyright 2003, Gaussian, Inc.),
 the Gaussian(R) 98 system (copyright 1998, Gaussian, Inc.),
 the Gaussian(R) 94 system (copyright 1995, Gaussian, Inc.),
 the Gaussian 92(TM) system (copyright 1992, Gaussian, Inc.),
 the Gaussian 90(TM) system (copyright 1990, Gaussian, Inc.),
 the Gaussian 88(TM) system (copyright 1988, Gaussian, Inc.),
 the Gaussian 86(TM) system (copyright 1986, Carnegie Mellon
 University), and the Gaussian 82(TM) system (copyright 1983,
 Carnegie Mellon University). Gaussian is a federally registered
 trademark of Gaussian, Inc.
  
 This software contains proprietary and confidential information,
 including trade secrets, belonging to Gaussian, Inc.
  
 This software is provided under written license and may be
 used, copied, transmitted, or stored only in accord with that
 written license.
  
 The following legend is applicable only to US Government
 contracts under FAR:
  
                    RESTRICTED RIGHTS LEGEND
  
 Use, reproduction and disclosure by the US Government is
 subject to restrictions as set forth in subparagraphs (a)
 and (c) of the Commercial Computer Software - Restricted
 Rights clause in FAR 52.227-19.
  
 Gaussian, Inc.
 340 Quinnipiac St., Bldg. 40, Wallingford CT 06492
  
  
 ---------------------------------------------------------------
 Warning -- This program may not be used in any manner that
 competes with the business of Gaussian, Inc. or will provide
 assistance to any competitor of Gaussian, Inc.  The licensee
 of this program is prohibited from giving any competitor of
 Gaussian, Inc. access to this program.  By using this program,
 the user acknowledges that Gaussian, Inc. is engaged in the
 business of creating and licensing software in the field of
 computational chemistry and represents and warrants to the
 licensee that it is not a competitor of Gaussian, Inc. and that
 it will not use this program in any manner prohibited above.
 ---------------------------------------------------------------
  

 Cite this work as:
 Gaussian 16, Revision A.03,
 M. J. Frisch, G. W. Trucks, H. B. Schlegel, G. E. Scuseria, 
 M. A. Robb, J. R. Cheeseman, G. Scalmani, V. Barone, 
 G. A. Petersson, H. Nakatsuji, X. Li, M. Caricato, A. V. Marenich, 
 J. Bloino, B. G. Janesko, R. Gomperts, B. Mennucci, H. P. Hratchian, 
 J. V. Ortiz, A. F. Izmaylov, J. L. Sonnenberg, D. Williams-Young, 
 F. Ding, F. Lipparini, F. Egidi, J. Goings, B. Peng, A. Petrone, 
 T. Henderson, D. Ranasinghe, V. G. Zakrzewski, J. Gao, N. Rega, 
 G. Zheng, W. Liang, M. Hada, M. Ehara, K. Toyota, R. Fukuda, 
 J. Hasegawa, M. Ishida, T. Nakajima, Y. Honda, O. Kitao, H. Nakai, 
 T. Vreven, K. Throssell, J. A. Montgomery, Jr., J. E. Peralta, 
 F. Ogliaro, M. J. Bearpark, J. J. Heyd, E. N. Brothers, K. N. Kudin, 
 V. N. Staroverov, T. A. Keith, R. Kobayashi, J. Normand, 
 K. Raghavachari, A. P. Rendell, J. C. Burant, S. S. Iyengar, 
 J. Tomasi, M. Cossi, J. M. Millam, M. Klene, C. Adamo, R. Cammi, 
 J. W. Ochterski, R. L. Martin, K. Morokuma, O. Farkas, 
 J. B. Foresman, and D. J. Fox, Gaussian, Inc., Wallingford CT, 2016.
 
 ******************************************
 Gaussian 16:  EM64L-G16RevA.03 25-Dec-2016
                29-Oct-2018 
 ******************************************
 ----------------------------------------------------------------------
 #m062x/6-311+g(2df,2p) Opt=(ModRedun,Loose,maxcycle=1000) Int(Grid=SG1
 ) freq
 ----------------------------------------------------------------------
 1/6=1000,7=-1,18=120,19=15,26=2,38=1/1,3;
 2/9=110,12=2,17=6,18=5,40=1/2;
 3/5=4,6=6,7=214,11=2,25=1,30=1,71=1,74=-55,75=1/1,2,3;
 4//1;
 5/5=2,38=5/2;
 6/7=2,8=2,9=2,10=2,28=1/1;
 7//1,2,3,16;
 1/6=1000,7=-1,18=20,19=15,26=2/3(2);
 2/9=110/2;
 99//99;
 2/9=110/2;
 3/5=4,6=6,7=214,11=2,25=1,30=1,71=1,74=-55,75=1/1,2,3;
 4/5=5,16=3,69=1/1;
 5/5=2,38=5/2;
 7//1,2,3,16;
 1/6=1000,7=-1,18=20,19=15,26=2/3(-5);
 2/9=110/2;
 6/7=2,8=2,9=2,10=2,19=2,28=1/1;
 99/9=1/99;
 -----
 Title
 -----
 Symbolic Z-matrix:
 Charge =  0 Multiplicity = 2
 C                    -5.8894    1.13033  -0.22341 
 C                    -5.43578   2.02871  -1.1874 
 C                    -4.07011   2.15241  -1.43772 
 C                    -3.15383   1.37664  -0.72662 
 C                    -4.97659   0.35531   0.48957 
 C                    -3.6111    0.47752   0.23789 
 H                    -6.95452   1.03521  -0.02667 
 H                    -5.32948  -0.3439    1.24367 
 H                    -2.90331  -0.12785   0.79964 
 H                    -3.72151   2.85704  -2.18927 
 H                    -6.14726   2.63451  -1.74328 
 C                    -1.70969   1.51473  -0.98898 
 C                    -0.77306   1.98046  -0.15088 
 H                    -1.39655   1.20417  -1.9852 
 C                     0.67      2.13278  -0.42118 
 H                    -1.11648   2.2886    0.851 
 C                     1.11876   3.13416  -1.28318 
 C                     2.48191   3.28528  -1.53141 
 H                     0.40589   3.8007   -1.76337 
 C                     1.59242   1.28408   0.19239 
 C                     3.4009    2.43714  -0.91635 
 H                     2.8283    4.06629  -2.2039 
 C                     2.95586   1.43673  -0.05413 
 H                     1.2503    0.50308   0.86776 
 H                     3.6726    0.77569   0.42709 
 H                     4.46445   2.55648  -1.10856 
 O                    -1.12175   2.39603   1.94933 
 O                    -0.64053   3.30724   2.99833 
 H                     0.2402    2.91823   3.15131 
 
 The following ModRedundant input section has been read:
 

 GradGradGradGradGradGradGradGradGradGradGradGradGradGradGradGradGradGrad
 Berny optimization.
 Initialization pass.
                           ----------------------------
                           !    Initial Parameters    !
                           ! (Angstroms and Degrees)  !
 --------------------------                            --------------------------
 ! Name  Definition              Value          Derivative Info.                !
 --------------------------------------------------------------------------------
 ! R1    R(1,2)                  1.3936         estimate D2E/DX2                !
 ! R2    R(1,5)                  1.3936         estimate D2E/DX2                !
 ! R3    R(1,7)                  1.0873         estimate D2E/DX2                !
 ! R4    R(2,3)                  1.3939         estimate D2E/DX2                !
 ! R5    R(2,11)                 1.0873         estimate D2E/DX2                !
 ! R6    R(3,4)                  1.3954         estimate D2E/DX2                !
 ! R7    R(3,10)                 1.0876         estimate D2E/DX2                !
 ! R8    R(4,6)                  1.3956         estimate D2E/DX2                !
 ! R9    R(4,12)                 1.4743         estimate D2E/DX2                !
 ! R10   R(5,6)                  1.3939         estimate D2E/DX2                !
 ! R11   R(5,8)                  1.0872         estimate D2E/DX2                !
 ! R12   R(6,9)                  1.0877         estimate D2E/DX2                !
 ! R13   R(12,13)                1.3404         estimate D2E/DX2                !
 ! R14   R(12,14)                1.0895         estimate D2E/DX2                !
 ! R15   R(13,15)                1.476          estimate D2E/DX2                !
 ! R16   R(13,16)                1.103          estimate D2E/DX2                !
 ! R17   R(15,17)                1.3954         estimate D2E/DX2                !
 ! R18   R(15,20)                1.3956         estimate D2E/DX2                !
 ! R19   R(16,27)                1.1036         estimate D2E/DX2                !
 ! R20   R(17,18)                1.3938         estimate D2E/DX2                !
 ! R21   R(17,19)                1.0877         estimate D2E/DX2                !
 ! R22   R(18,21)                1.3936         estimate D2E/DX2                !
 ! R23   R(18,22)                1.0873         estimate D2E/DX2                !
 ! R24   R(20,23)                1.3939         estimate D2E/DX2                !
 ! R25   R(20,24)                1.0877         estimate D2E/DX2                !
 ! R26   R(21,23)                1.3937         estimate D2E/DX2                !
 ! R27   R(21,26)                1.0873         estimate D2E/DX2                !
 ! R28   R(23,25)                1.0873         estimate D2E/DX2                !
 ! R29   R(27,28)                1.4705         estimate D2E/DX2                !
 ! R30   R(28,29)                0.9749         estimate D2E/DX2                !
 ! A1    A(2,1,5)              119.9459         estimate D2E/DX2                !
 ! A2    A(2,1,7)              120.0276         estimate D2E/DX2                !
 ! A3    A(5,1,7)              120.0265         estimate D2E/DX2                !
 ! A4    A(1,2,3)              120.0219         estimate D2E/DX2                !
 ! A5    A(1,2,11)             119.9884         estimate D2E/DX2                !
 ! A6    A(3,2,11)             119.9897         estimate D2E/DX2                !
 ! A7    A(2,3,4)              120.1653         estimate D2E/DX2                !
 ! A8    A(2,3,10)             119.7105         estimate D2E/DX2                !
 ! A9    A(4,3,10)             120.1243         estimate D2E/DX2                !
 ! A10   A(3,4,6)              119.6837         estimate D2E/DX2                !
 ! A11   A(3,4,12)             120.0315         estimate D2E/DX2                !
 ! A12   A(6,4,12)             120.2836         estimate D2E/DX2                !
 ! A13   A(1,5,6)              120.0344         estimate D2E/DX2                !
 ! A14   A(1,5,8)              119.9926         estimate D2E/DX2                !
 ! A15   A(6,5,8)              119.9729         estimate D2E/DX2                !
 ! A16   A(4,6,5)              120.1487         estimate D2E/DX2                !
 ! A17   A(4,6,9)              120.1516         estimate D2E/DX2                !
 ! A18   A(5,6,9)              119.6991         estimate D2E/DX2                !
 ! A19   A(4,12,13)            127.285          estimate D2E/DX2                !
 ! A20   A(4,12,14)            114.6817         estimate D2E/DX2                !
 ! A21   A(13,12,14)           118.0312         estimate D2E/DX2                !
 ! A22   A(12,13,15)           127.1947         estimate D2E/DX2                !
 ! A23   A(12,13,16)           116.5799         estimate D2E/DX2                !
 ! A24   A(15,13,16)           116.2249         estimate D2E/DX2                !
 ! A25   A(13,15,17)           120.1052         estimate D2E/DX2                !
 ! A26   A(13,15,20)           120.1938         estimate D2E/DX2                !
 ! A27   A(17,15,20)           119.6988         estimate D2E/DX2                !
 ! A28   A(13,16,27)           158.854          estimate D2E/DX2                !
 ! A29   A(15,17,18)           120.1557         estimate D2E/DX2                !
 ! A30   A(15,17,19)           120.1131         estimate D2E/DX2                !
 ! A31   A(18,17,19)           119.7311         estimate D2E/DX2                !
 ! A32   A(17,18,21)           120.0228         estimate D2E/DX2                !
 ! A33   A(17,18,22)           119.9744         estimate D2E/DX2                !
 ! A34   A(21,18,22)           120.0027         estimate D2E/DX2                !
 ! A35   A(15,20,23)           120.1425         estimate D2E/DX2                !
 ! A36   A(15,20,24)           120.1155         estimate D2E/DX2                !
 ! A37   A(23,20,24)           119.7416         estimate D2E/DX2                !
 ! A38   A(18,21,23)           119.9556         estimate D2E/DX2                !
 ! A39   A(18,21,26)           120.0121         estimate D2E/DX2                !
 ! A40   A(23,21,26)           120.0323         estimate D2E/DX2                !
 ! A41   A(20,23,21)           120.0244         estimate D2E/DX2                !
 ! A42   A(20,23,25)           119.9943         estimate D2E/DX2                !
 ! A43   A(21,23,25)           119.9813         estimate D2E/DX2                !
 ! A44   A(16,27,28)           140.2411         estimate D2E/DX2                !
 ! A45   A(27,28,29)            99.2256         estimate D2E/DX2                !
 ! D1    D(5,1,2,3)             -0.0321         estimate D2E/DX2                !
 ! D2    D(5,1,2,11)          -179.9318         estimate D2E/DX2                !
 ! D3    D(7,1,2,3)            179.877          estimate D2E/DX2                !
 ! D4    D(7,1,2,11)            -0.0227         estimate D2E/DX2                !
 ! D5    D(2,1,5,6)             -0.064          estimate D2E/DX2                !
 ! D6    D(2,1,5,8)            179.8373         estimate D2E/DX2                !
 ! D7    D(7,1,5,6)           -179.9731         estimate D2E/DX2                !
 ! D8    D(7,1,5,8)             -0.0718         estimate D2E/DX2                !
 ! D9    D(1,2,3,4)              0.1094         estimate D2E/DX2                !
 ! D10   D(1,2,3,10)          -179.8357         estimate D2E/DX2                !
 ! D11   D(11,2,3,4)          -179.9909         estimate D2E/DX2                !
 ! D12   D(11,2,3,10)            0.064          estimate D2E/DX2                !
 ! D13   D(2,3,4,6)             -0.0901         estimate D2E/DX2                !
 ! D14   D(2,3,4,12)          -179.6933         estimate D2E/DX2                !
 ! D15   D(10,3,4,6)           179.8547         estimate D2E/DX2                !
 ! D16   D(10,3,4,12)            0.2516         estimate D2E/DX2                !
 ! D17   D(3,4,6,5)             -0.0061         estimate D2E/DX2                !
 ! D18   D(3,4,6,9)           -179.7378         estimate D2E/DX2                !
 ! D19   D(12,4,6,5)           179.596          estimate D2E/DX2                !
 ! D20   D(12,4,6,9)            -0.1357         estimate D2E/DX2                !
 ! D21   D(3,4,12,13)          114.0902         estimate D2E/DX2                !
 ! D22   D(3,4,12,14)          -65.3765         estimate D2E/DX2                !
 ! D23   D(6,4,12,13)          -65.5106         estimate D2E/DX2                !
 ! D24   D(6,4,12,14)          115.0227         estimate D2E/DX2                !
 ! D25   D(1,5,6,4)              0.0831         estimate D2E/DX2                !
 ! D26   D(1,5,6,9)            179.8161         estimate D2E/DX2                !
 ! D27   D(8,5,6,4)           -179.8182         estimate D2E/DX2                !
 ! D28   D(8,5,6,9)             -0.0852         estimate D2E/DX2                !
 ! D29   D(4,12,13,15)        -179.2161         estimate D2E/DX2                !
 ! D30   D(4,12,13,16)           0.5128         estimate D2E/DX2                !
 ! D31   D(14,12,13,15)          0.2349         estimate D2E/DX2                !
 ! D32   D(14,12,13,16)        179.9638         estimate D2E/DX2                !
 ! D33   D(12,13,15,17)         71.7855         estimate D2E/DX2                !
 ! D34   D(12,13,15,20)       -108.7608         estimate D2E/DX2                !
 ! D35   D(16,13,15,17)       -107.9443         estimate D2E/DX2                !
 ! D36   D(16,13,15,20)         71.5094         estimate D2E/DX2                !
 ! D37   D(12,13,16,27)        136.8752         estimate D2E/DX2                !
 ! D38   D(15,13,16,27)        -43.3654         estimate D2E/DX2                !
 ! D39   D(13,15,17,18)        179.5224         estimate D2E/DX2                !
 ! D40   D(13,15,17,19)         -0.4156         estimate D2E/DX2                !
 ! D41   D(20,15,17,18)          0.066          estimate D2E/DX2                !
 ! D42   D(20,15,17,19)       -179.872          estimate D2E/DX2                !
 ! D43   D(13,15,20,23)       -179.4123         estimate D2E/DX2                !
 ! D44   D(13,15,20,24)          0.3664         estimate D2E/DX2                !
 ! D45   D(17,15,20,23)          0.0436         estimate D2E/DX2                !
 ! D46   D(17,15,20,24)        179.8223         estimate D2E/DX2                !
 ! D47   D(13,16,27,28)         90.549          estimate D2E/DX2                !
 ! D48   D(15,17,18,21)         -0.1263         estimate D2E/DX2                !
 ! D49   D(15,17,18,22)        179.9758         estimate D2E/DX2                !
 ! D50   D(19,17,18,21)        179.812          estimate D2E/DX2                !
 ! D51   D(19,17,18,22)         -0.086          estimate D2E/DX2                !
 ! D52   D(17,18,21,23)          0.0766         estimate D2E/DX2                !
 ! D53   D(17,18,21,26)       -179.8761         estimate D2E/DX2                !
 ! D54   D(22,18,21,23)        179.9746         estimate D2E/DX2                !
 ! D55   D(22,18,21,26)          0.0218         estimate D2E/DX2                !
 ! D56   D(15,20,23,21)         -0.0932         estimate D2E/DX2                !
 ! D57   D(15,20,23,25)        179.8514         estimate D2E/DX2                !
 ! D58   D(24,20,23,21)       -179.8727         estimate D2E/DX2                !
 ! D59   D(24,20,23,25)          0.0718         estimate D2E/DX2                !
 ! D60   D(18,21,23,20)          0.0329         estimate D2E/DX2                !
 ! D61   D(18,21,23,25)       -179.9116         estimate D2E/DX2                !
 ! D62   D(26,21,23,20)        179.9856         estimate D2E/DX2                !
 ! D63   D(26,21,23,25)          0.0411         estimate D2E/DX2                !
 ! D64   D(16,27,28,29)        -89.0713         estimate D2E/DX2                !
 --------------------------------------------------------------------------------
 Trust Radius=3.00D-01 FncErr=1.00D-05 GrdErr=1.00D-04 EigMax=2.50D+02 EigMin=1.00D-04
 Number of steps in this run=    174 maximum allowed number of steps=    174.
 GradGradGradGradGradGradGradGradGradGradGradGradGradGradGradGradGradGrad

                          Input orientation:                          
 ---------------------------------------------------------------------
 Center     Atomic      Atomic             Coordinates (Angstroms)
 Number     Number       Type             X           Y           Z
 ---------------------------------------------------------------------
      1          6           0       -5.889400    1.130330   -0.223410
      2          6           0       -5.435780    2.028710   -1.187400
      3          6           0       -4.070110    2.152410   -1.437720
      4          6           0       -3.153830    1.376640   -0.726620
      5          6           0       -4.976590    0.355310    0.489570
      6          6           0       -3.611100    0.477520    0.237890
      7          1           0       -6.954520    1.035210   -0.026670
      8          1           0       -5.329480   -0.343900    1.243670
      9          1           0       -2.903310   -0.127850    0.799640
     10          1           0       -3.721510    2.857040   -2.189270
     11          1           0       -6.147260    2.634510   -1.743280
     12          6           0       -1.709690    1.514730   -0.988980
     13          6           0       -0.773060    1.980460   -0.150880
     14          1           0       -1.396550    1.204170   -1.985200
     15          6           0        0.670000    2.132780   -0.421180
     16          1           0       -1.116480    2.288600    0.851000
     17          6           0        1.118760    3.134160   -1.283180
     18          6           0        2.481910    3.285280   -1.531410
     19          1           0        0.405890    3.800700   -1.763370
     20          6           0        1.592420    1.284080    0.192390
     21          6           0        3.400900    2.437140   -0.916350
     22          1           0        2.828300    4.066290   -2.203900
     23          6           0        2.955860    1.436730   -0.054130
     24          1           0        1.250300    0.503080    0.867760
     25          1           0        3.672600    0.775690    0.427090
     26          1           0        4.464450    2.556480   -1.108560
     27          8           0       -1.121750    2.396030    1.949330
     28          8           0       -0.640530    3.307240    2.998330
     29          1           0        0.240200    2.918230    3.151310
 ---------------------------------------------------------------------
                    Distance matrix (angstroms):
                    1          2          3          4          5
     1  C    0.000000
     2  C    1.393605   0.000000
     3  C    2.414335   1.393921   0.000000
     4  C    2.792352   2.417604   1.395368   0.000000
     5  C    1.393635   2.413162   2.786704   2.417579   0.000000
     6  C    2.414458   2.786952   2.413217   1.395633   1.393858
     7  H    1.087306   2.154277   3.399856   3.879658   2.154292
     8  H    2.153877   3.398629   3.873942   3.402316   1.087241
     9  H    3.397997   3.874595   3.400998   2.157712   2.151297
    10  H    3.397923   2.151417   1.087590   2.157125   3.874282
    11  H    2.153846   1.087290   2.154145   3.402419   3.398653
    12  C    4.266595   3.766602   2.485877   1.474260   3.768687
    13  C    5.186995   4.776783   3.543453   2.522725   4.552027
    14  H    4.826495   4.199015   2.889086   2.168364   4.434156
    15  C    6.638505   6.154549   4.847926   3.909823   5.989394
    16  H    5.027595   4.783197   3.739080   2.733377   4.332285
    17  C    7.365647   6.647796   5.283189   4.653349   6.929498
    18  C    8.742626   8.024159   6.649898   6.004345   8.264279
    19  H    7.009496   6.131623   4.780950   4.429732   6.776248
    20  C    7.494942   7.200964   5.956131   4.835291   6.640996
    21  C    9.407316   8.850265   7.494591   6.642676   8.746026
    22  H    9.409596   8.572049   7.199863   6.723277   9.052208
    23  C    8.852184   8.488484   7.196581   6.146883   8.024266
    24  H    7.249787   7.159252   6.028457   4.764611   6.240114
    25  H    9.590660   9.334839   8.082229   6.949269   8.659625
    26  H   10.489023   9.914601   8.550458   7.718555   9.825091
    27  O    5.390110   5.346481   4.497142   3.511298   4.599481
    28  O    6.532165   6.492257   5.724875   4.890720   5.814567
    29  H    7.222002   7.199472   6.342275   5.379059   6.392833
                    6          7          8          9         10
     6  C    0.000000
     7  H    3.399922   0.000000
     8  H    2.153870   2.481222   0.000000
     9  H    1.087659   4.295090   2.475912   0.000000
    10  H    3.400796   4.295143   4.961518   4.302627   0.000000
    11  H    3.874242   2.481165   4.296692   4.961883   2.476427
    12  C    2.489252   5.353898   4.641348   2.705912   2.699984
    13  C    3.234879   6.254548   5.301734   3.144268   3.690093
    14  H    3.220929   5.895373   5.318840   3.435104   2.859906
    15  C    4.637033   7.713210   6.700704   4.401067   4.789160
    16  H    3.143095   6.035230   4.983334   3.005766   4.043828
    17  C    5.634090   8.435773   7.749947   5.581747   4.932140
    18  C    6.938207   9.816989   9.049300   6.788508   6.252886
    19  H    5.584333   8.052310   7.688593   5.740499   4.255269
    20  C    5.265855   8.553368   7.188060   4.751198   6.031945
    21  C    7.371603  10.487691   9.413788   7.019035   7.247439
    22  H    7.765789  10.470499   9.893679   7.711253   6.660519
    23  C    6.643066   9.918548   8.573318   6.124272   7.152858
    24  H    4.902102   8.270565   6.644711   4.201808   6.293286
    25  H    7.292255  10.639968   9.108113   6.648140   8.114815
    26  H    8.446864  11.570550  10.481710   8.070362   8.262458
    27  O    3.578627   6.306950   5.070519   3.296318   4.909103
    28  O    4.944859   7.360653   6.196443   4.664146   6.050315
    29  H    5.410877   8.087603   6.730670   4.968965   6.649864
                   11         12         13         14         15
    11  H    0.000000
    12  C    4.638416   0.000000
    13  C    5.643186   1.340370   0.000000
    14  H    4.967257   1.089476   2.087126   0.000000
    15  C    6.962379   2.523352   1.476037   2.753017   0.000000
    16  H    5.670863   2.082378   1.103019   3.049337   2.198689
    17  C    7.297697   3.272497   2.488395   3.247226   1.395418
    18  C    8.656267   4.582422   3.768720   4.424861   2.417413
    19  H    6.656138   3.209520   2.702466   3.168591   2.157124
    20  C    8.091547   3.514650   2.489634   3.698949   1.395571
    21  C    9.585934   5.193674   4.268073   5.067364   2.792068
    22  H    9.100706   5.346012   4.640622   5.107731   3.402177
    23  C    9.335668   4.758927   3.769595   4.767241   2.417513
    24  H    8.129232   3.637645   2.704490   3.954330   2.157322
    25  H   10.227188   5.614310   4.642135   5.630188   3.402479
    26  H   10.630962   6.262551   5.355414   6.078533   3.879415
    27  O    6.240833   3.123464   2.169139   4.120264   2.983117
    28  O    7.297911   4.500537   3.419859   5.461688   3.845763
    29  H    8.052152   4.786845   3.579185   5.656915   3.682980
                   16         17         18         19         20
    16  H    0.000000
    17  C    3.204059   0.000000
    18  C    4.429183   1.393784   0.000000
    19  H    3.382157   1.087677   2.151586   0.000000
    20  C    2.963270   2.413391   2.787020   3.400916   0.000000
    21  C    4.853072   2.414242   1.393622   3.398062   2.414426
    22  H    5.296592   2.153861   1.087293   2.476424   3.874313
    23  C    4.257804   2.786892   2.413322   3.874558   1.393931
    24  H    2.964795   3.400945   3.874728   4.302345   1.087719
    25  H    5.040227   3.874210   3.398751   4.961874   2.154227
    26  H    5.921015   3.399684   2.154163   4.295203   3.400004
    27  O    1.103584   4.001730   5.088485   4.253343   3.419063
    28  O    2.423877   4.632104   5.501696   4.900233   4.117346
    29  H    2.743800   4.525836   5.204600   4.996027   3.640625
                   21         22         23         24         25
    21  C    0.000000
    22  H    2.154016   0.000000
    23  C    1.393666   3.398878   0.000000
    24  H    3.398340   4.962020   2.151864   0.000000
    25  H    2.153850   4.296859   1.087319   2.477104   0.000000
    26  H    1.087348   2.481186   2.154416   4.295702   2.481222
    27  O    5.354267   5.970091   4.643384   3.221750   5.284743
    28  O    5.693413   6.298582   5.074479   3.997234   5.623443
    29  H    5.173715   6.057605   4.454716   3.473881   4.877830
                   26         27         28         29
    26  H    0.000000
    27  O    6.370405   0.000000
    28  O    6.594771   1.470468   0.000000
    29  H    6.010128   1.890068   0.974893   0.000000
 Stoichiometry    C14H13O2(2)
 Framework group  C1[X(C14H13O2)]
 Deg. of freedom    81
 Full point group                 C1      NOp   1
 Largest Abelian subgroup         C1      NOp   1
 Largest concise Abelian subgroup C1      NOp   1
                         Standard orientation:                         
 ---------------------------------------------------------------------
 Center     Atomic      Atomic             Coordinates (Angstroms)
 Number     Number       Type             X           Y           Z
 ---------------------------------------------------------------------
      1          6           0       -4.776323   -0.162948    0.062088
      2          6           0       -4.179588   -1.126054   -0.749373
      3          6           0       -2.808837   -1.362337   -0.658661
      4          6           0       -2.030786   -0.638034    0.245260
      5          6           0       -4.001602    0.563194    0.964720
      6          6           0       -2.631246    0.325555    1.056885
      7          1           0       -5.845210    0.022838   -0.010010
      8          1           0       -4.465918    1.316607    1.596283
      9          1           0       -2.031302    0.897530    1.761097
     10          1           0       -2.347945   -2.113270   -1.296258
     11          1           0       -4.783168   -1.692200   -1.454617
     12          6           0       -0.580168   -0.885584    0.333976
     13          6           0        0.408981   -0.039629    0.013763
     14          1           0       -0.309098   -1.877006    0.695311
     15          6           0        1.860813   -0.295194    0.088302
     16          1           0        0.107567    0.957140   -0.349902
     17          6           0        2.467691   -1.156829   -0.826288
     18          6           0        3.840178   -1.391172   -0.763067
     19          1           0        1.871398   -1.647577   -1.592213
     20          6           0        2.634598    0.331977    1.065816
     21          6           0        4.610646   -0.762550    0.213353
     22          1           0        4.309936   -2.063416   -1.476945
     23          6           0        4.007591    0.099340    1.127559
     24          1           0        2.169032    1.007147    1.780327
     25          1           0        4.608549    0.591135    1.888644
     26          1           0        5.681689   -0.943932    0.261253
     27          8           0        0.108178    2.054859   -0.463522
     28          8           0        0.714338    3.104846   -1.295613
     29          1           0        1.522657    3.268955   -0.775896
 ---------------------------------------------------------------------
 Rotational constants (GHZ):           1.0146119           0.2470321           0.2222961
 Standard basis: 6-311+G(2df,2p) (5D, 7F)
 There are   741 symmetry adapted cartesian basis functions of A   symmetry.
 There are   661 symmetry adapted basis functions of A   symmetry.
   661 basis functions,   975 primitive gaussians,   741 cartesian basis functions
    57 alpha electrons       56 beta electrons
       nuclear repulsion energy       960.0870423388 Hartrees.
 NAtoms=   29 NActive=   29 NUniq=   29 SFac= 1.00D+00 NAtFMM=   60 NAOKFM=F Big=F
 Integral buffers will be    131072 words long.
 Raffenetti 2 integral format.
 Two-electron integral symmetry is turned on.
 One-electron integrals computed using PRISM.
 NBasis=   661 RedAO= T EigKep=  1.85D-06  NBF=   661
 NBsUse=   660 1.00D-06 EigRej=  8.29D-07 NBFU=   660
 ExpMin= 4.38D-02 ExpMax= 8.59D+03 ExpMxC= 1.30D+03 IAcc=2 IRadAn=         4 AccDes= 0.00D+00
 Harris functional with IExCor= 1009 and IRadAn=       4 diagonalized for initial guess.
 HarFok:  IExCor= 1009 AccDes= 0.00D+00 IRadAn=         4 IDoV= 1 UseB2=F ITyADJ=14
 ICtDFT=  3500011 ScaDFX=  1.000000  1.000000  1.000000  1.000000
 FoFCou: FMM=F IPFlag=           0 FMFlag=      100000 FMFlg1=           0
         NFxFlg=           0 DoJE=T BraDBF=F KetDBF=T FulRan=T
         wScrn=  0.000000 ICntrl=       500 IOpCl=  0 I1Cent=   200000004 NGrid=           0
         NMat0=    1 NMatS0=      1 NMatT0=    0 NMatD0=    1 NMtDS0=    0 NMtDT0=    0
 Petite list used in FoFCou.
 Initial guess <Sx>= 0.0000 <Sy>= 0.0000 <Sz>= 0.5000 <S**2>= 0.7500 S= 0.5000
 Requested convergence on RMS density matrix=1.00D-08 within 128 cycles.
 Requested convergence on MAX density matrix=1.00D-06.
 Requested convergence on             energy=1.00D-06.
 No special actions if energy rises.
 Restarting incremental Fock formation.
 SCF Done:  E(UM062X) =  -691.446234196     A.U. after   23 cycles
            NFock= 23  Conv=0.24D-08     -V/T= 2.0039
 <Sx>= 0.0000 <Sy>= 0.0000 <Sz>= 0.5000 <S**2>= 0.7625 S= 0.5062
 <L.S>= 0.000000000000E+00
 Annihilation of the first spin contaminant:
 S**2 before annihilation     0.7625,   after     0.7501

 **********************************************************************

            Population analysis using the SCF density.

 **********************************************************************

 Orbital symmetries:
 Alpha Orbitals:
       Occupied  (A) (A) (A) (A) (A) (A) (A) (A) (A) (A) (A) (A)
                 (A) (A) (A) (A) (A) (A) (A) (A) (A) (A) (A) (A)
                 (A) (A) (A) (A) (A) (A) (A) (A) (A) (A) (A) (A)
                 (A) (A) (A) (A) (A) (A) (A) (A) (A) (A) (A) (A)
                 (A) (A) (A) (A) (A) (A) (A) (A) (A)
       Virtual   (A) (A) (A) (A) (A) (A) (A) (A) (A) (A) (A) (A)
                 (A) (A) (A) (A) (A) (A) (A) (A) (A) (A) (A) (A)
                 (A) (A) (A) (A) (A) (A) (A) (A) (A) (A) (A) (A)
                 (A) (A) (A) (A) (A) (A) (A) (A) (A) (A) (A) (A)
                 (A) (A) (A) (A) (A) (A) (A) (A) (A) (A) (A) (A)
                 (A) (A) (A) (A) (A) (A) (A) (A) (A) (A) (A) (A)
                 (A) (A) (A) (A) (A) (A) (A) (A) (A) (A) (A) (A)
                 (A) (A) (A) (A) (A) (A) (A) (A) (A) (A) (A) (A)
                 (A) (A) (A) (A) (A) (A) (A) (A) (A) (A) (A) (A)
                 (A) (A) (A) (A) (A) (A) (A) (A) (A) (A) (A) (A)
                 (A) (A) (A) (A) (A) (A) (A) (A) (A) (A) (A) (A)
                 (A) (A) (A) (A) (A) (A) (A) (A) (A) (A) (A) (A)
                 (A) (A) (A) (A) (A) (A) (A) (A) (A) (A) (A) (A)
                 (A) (A) (A) (A) (A) (A) (A) (A) (A) (A) (A) (A)
                 (A) (A) (A) (A) (A) (A) (A) (A) (A) (A) (A) (A)
                 (A) (A) (A) (A) (A) (A) (A) (A) (A) (A) (A) (A)
                 (A) (A) (A) (A) (A) (A) (A) (A) (A) (A) (A) (A)
                 (A) (A) (A) (A) (A) (A) (A) (A) (A) (A) (A) (A)
                 (A) (A) (A) (A) (A) (A) (A) (A) (A) (A) (A) (A)
                 (A) (A) (A) (A) (A) (A) (A) (A) (A) (A) (A) (A)
                 (A) (A) (A) (A) (A) (A) (A) (A) (A) (A) (A) (A)
                 (A) (A) (A) (A) (A) (A) (A) (A) (A) (A) (A) (A)
                 (A) (A) (A) (A) (A) (A) (A) (A) (A) (A) (A) (A)
                 (A) (A) (A) (A) (A) (A) (A) (A) (A) (A) (A) (A)
                 (A) (A) (A) (A) (A) (A) (A) (A) (A) (A) (A) (A)
                 (A) (A) (A) (A) (A) (A) (A) (A) (A) (A) (A) (A)
                 (A) (A) (A) (A) (A) (A) (A) (A) (A) (A) (A) (A)
                 (A) (A) (A) (A) (A) (A) (A) (A) (A) (A) (A) (A)
                 (A) (A) (A) (A) (A) (A) (A) (A) (A) (A) (A) (A)
                 (A) (A) (A) (A) (A) (A) (A) (A) (A) (A) (A) (A)
                 (A) (A) (A) (A) (A) (A) (A) (A) (A) (A) (A) (A)
                 (A) (A) (A) (A) (A) (A) (A) (A) (A) (A) (A) (A)
                 (A) (A) (A) (A) (A) (A) (A) (A) (A) (A) (A) (A)
                 (A) (A) (A) (A) (A) (A) (A) (A) (A) (A) (A) (A)
                 (A) (A) (A) (A) (A) (A) (A) (A) (A) (A) (A) (A)
                 (A) (A) (A) (A) (A) (A) (A) (A) (A) (A) (A) (A)
                 (A) (A) (A) (A) (A) (A) (A) (A) (A) (A) (A) (A)
                 (A) (A) (A) (A) (A) (A) (A) (A) (A) (A) (A) (A)
                 (A) (A) (A) (A) (A) (A) (A) (A) (A) (A) (A) (A)
                 (A) (A) (A) (A) (A) (A) (A) (A) (A) (A) (A) (A)
                 (A) (A) (A) (A) (A) (A) (A) (A) (A) (A) (A) (A)
                 (A) (A) (A) (A) (A) (A) (A) (A) (A) (A) (A) (A)
                 (A) (A) (A) (A) (A) (A) (A) (A) (A) (A) (A) (A)
                 (A) (A) (A) (A) (A) (A) (A) (A) (A) (A) (A) (A)
                 (A) (A) (A) (A) (A) (A) (A) (A) (A) (A) (A) (A)
                 (A) (A) (A) (A) (A) (A) (A) (A) (A) (A) (A) (A)
                 (A) (A) (A) (A) (A) (A) (A) (A) (A) (A) (A) (A)
                 (A) (A) (A) (A) (A) (A) (A) (A) (A) (A) (A) (A)
                 (A) (A) (A) (A) (A) (A) (A) (A) (A) (A) (A) (A)
                 (A) (A) (A) (A) (A) (A) (A) (A) (A) (A) (A) (A)
                 (A) (A) (A)
 Beta  Orbitals:
       Occupied  (A) (A) (A) (A) (A) (A) (A) (A) (A) (A) (A) (A)
                 (A) (A) (A) (A) (A) (A) (A) (A) (A) (A) (A) (A)
                 (A) (A) (A) (A) (A) (A) (A) (A) (A) (A) (A) (A)
                 (A) (A) (A) (A) (A) (A) (A) (A) (A) (A) (A) (A)
                 (A) (A) (A) (A) (A) (A) (A) (A)
       Virtual   (A) (A) (A) (A) (A) (A) (A) (A) (A) (A) (A) (A)
                 (A) (A) (A) (A) (A) (A) (A) (A) (A) (A) (A) (A)
                 (A) (A) (A) (A) (A) (A) (A) (A) (A) (A) (A) (A)
                 (A) (A) (A) (A) (A) (A) (A) (A) (A) (A) (A) (A)
                 (A) (A) (A) (A) (A) (A) (A) (A) (A) (A) (A) (A)
                 (A) (A) (A) (A) (A) (A) (A) (A) (A) (A) (A) (A)
                 (A) (A) (A) (A) (A) (A) (A) (A) (A) (A) (A) (A)
                 (A) (A) (A) (A) (A) (A) (A) (A) (A) (A) (A) (A)
                 (A) (A) (A) (A) (A) (A) (A) (A) (A) (A) (A) (A)
                 (A) (A) (A) (A) (A) (A) (A) (A) (A) (A) (A) (A)
                 (A) (A) (A) (A) (A) (A) (A) (A) (A) (A) (A) (A)
                 (A) (A) (A) (A) (A) (A) (A) (A) (A) (A) (A) (A)
                 (A) (A) (A) (A) (A) (A) (A) (A) (A) (A) (A) (A)
                 (A) (A) (A) (A) (A) (A) (A) (A) (A) (A) (A) (A)
                 (A) (A) (A) (A) (A) (A) (A) (A) (A) (A) (A) (A)
                 (A) (A) (A) (A) (A) (A) (A) (A) (A) (A) (A) (A)
                 (A) (A) (A) (A) (A) (A) (A) (A) (A) (A) (A) (A)
                 (A) (A) (A) (A) (A) (A) (A) (A) (A) (A) (A) (A)
                 (A) (A) (A) (A) (A) (A) (A) (A) (A) (A) (A) (A)
                 (A) (A) (A) (A) (A) (A) (A) (A) (A) (A) (A) (A)
                 (A) (A) (A) (A) (A) (A) (A) (A) (A) (A) (A) (A)
                 (A) (A) (A) (A) (A) (A) (A) (A) (A) (A) (A) (A)
                 (A) (A) (A) (A) (A) (A) (A) (A) (A) (A) (A) (A)
                 (A) (A) (A) (A) (A) (A) (A) (A) (A) (A) (A) (A)
                 (A) (A) (A) (A) (A) (A) (A) (A) (A) (A) (A) (A)
                 (A) (A) (A) (A) (A) (A) (A) (A) (A) (A) (A) (A)
                 (A) (A) (A) (A) (A) (A) (A) (A) (A) (A) (A) (A)
                 (A) (A) (A) (A) (A) (A) (A) (A) (A) (A) (A) (A)
                 (A) (A) (A) (A) (A) (A) (A) (A) (A) (A) (A) (A)
                 (A) (A) (A) (A) (A) (A) (A) (A) (A) (A) (A) (A)
                 (A) (A) (A) (A) (A) (A) (A) (A) (A) (A) (A) (A)
                 (A) (A) (A) (A) (A) (A) (A) (A) (A) (A) (A) (A)
                 (A) (A) (A) (A) (A) (A) (A) (A) (A) (A) (A) (A)
                 (A) (A) (A) (A) (A) (A) (A) (A) (A) (A) (A) (A)
                 (A) (A) (A) (A) (A) (A) (A) (A) (A) (A) (A) (A)
                 (A) (A) (A) (A) (A) (A) (A) (A) (A) (A) (A) (A)
                 (A) (A) (A) (A) (A) (A) (A) (A) (A) (A) (A) (A)
                 (A) (A) (A) (A) (A) (A) (A) (A) (A) (A) (A) (A)
                 (A) (A) (A) (A) (A) (A) (A) (A) (A) (A) (A) (A)
                 (A) (A) (A) (A) (A) (A) (A) (A) (A) (A) (A) (A)
                 (A) (A) (A) (A) (A) (A) (A) (A) (A) (A) (A) (A)
                 (A) (A) (A) (A) (A) (A) (A) (A) (A) (A) (A) (A)
                 (A) (A) (A) (A) (A) (A) (A) (A) (A) (A) (A) (A)
                 (A) (A) (A) (A) (A) (A) (A) (A) (A) (A) (A) (A)
                 (A) (A) (A) (A) (A) (A) (A) (A) (A) (A) (A) (A)
                 (A) (A) (A) (A) (A) (A) (A) (A) (A) (A) (A) (A)
                 (A) (A) (A) (A) (A) (A) (A) (A) (A) (A) (A) (A)
                 (A) (A) (A) (A) (A) (A) (A) (A) (A) (A) (A) (A)
                 (A) (A) (A) (A) (A) (A) (A) (A) (A) (A) (A) (A)
                 (A) (A) (A) (A) (A) (A) (A) (A) (A) (A) (A) (A)
                 (A) (A) (A) (A)
 The electronic state is 2-A.
 Alpha  occ. eigenvalues --  -19.71100 -19.70572 -10.56453 -10.55651 -10.55544
 Alpha  occ. eigenvalues --  -10.55517 -10.55445 -10.55377 -10.55361 -10.55298
 Alpha  occ. eigenvalues --  -10.55236 -10.54570 -10.54493 -10.54450 -10.54378
 Alpha  occ. eigenvalues --  -10.54311  -1.25090  -1.04631  -0.97668  -0.96702
 Alpha  occ. eigenvalues --   -0.90745  -0.86413  -0.85293  -0.84396  -0.81396
 Alpha  occ. eigenvalues --   -0.72987  -0.69950  -0.69141  -0.68457  -0.67197
 Alpha  occ. eigenvalues --   -0.62390  -0.59724  -0.58739  -0.56205  -0.54593
 Alpha  occ. eigenvalues --   -0.53358  -0.53283  -0.52855  -0.51880  -0.50578
 Alpha  occ. eigenvalues --   -0.49727  -0.48869  -0.48743  -0.45471  -0.44143
 Alpha  occ. eigenvalues --   -0.42763  -0.41840  -0.41608  -0.40855  -0.40565
 Alpha  occ. eigenvalues --   -0.39785  -0.35194  -0.34130  -0.31931  -0.30975
 Alpha  occ. eigenvalues --   -0.30099  -0.29626
 Alpha virt. eigenvalues --   -0.00723   0.00299   0.00665   0.01046   0.01477
 Alpha virt. eigenvalues --    0.01678   0.01863   0.02406   0.03100   0.03161
 Alpha virt. eigenvalues --    0.03543   0.04493   0.04538   0.05127   0.05900
 Alpha virt. eigenvalues --    0.06498   0.06601   0.06992   0.07213   0.07890
 Alpha virt. eigenvalues --    0.08524   0.09419   0.09683   0.09885   0.10812
 Alpha virt. eigenvalues --    0.11441   0.12189   0.12576   0.13077   0.13412
 Alpha virt. eigenvalues --    0.13840   0.13997   0.14649   0.15074   0.15588
 Alpha virt. eigenvalues --    0.15698   0.15753   0.16290   0.16566   0.16768
 Alpha virt. eigenvalues --    0.17208   0.18110   0.18491   0.18974   0.19136
 Alpha virt. eigenvalues --    0.19664   0.19779   0.20179   0.20668   0.21079
 Alpha virt. eigenvalues --    0.21326   0.21663   0.21967   0.22176   0.22336
 Alpha virt. eigenvalues --    0.22705   0.23270   0.23352   0.23618   0.23743
 Alpha virt. eigenvalues --    0.24135   0.24245   0.24682   0.25007   0.25093
 Alpha virt. eigenvalues --    0.25671   0.26463   0.26693   0.27496   0.27982
 Alpha virt. eigenvalues --    0.28133   0.28554   0.28840   0.29493   0.30508
 Alpha virt. eigenvalues --    0.31171   0.31547   0.32540   0.32879   0.33172
 Alpha virt. eigenvalues --    0.34351   0.34639   0.34978   0.35880   0.36167
 Alpha virt. eigenvalues --    0.36756   0.37442   0.37759   0.38711   0.40635
 Alpha virt. eigenvalues --    0.41283   0.42163   0.43478   0.44889   0.46241
 Alpha virt. eigenvalues --    0.47385   0.48604   0.51706   0.52326   0.53311
 Alpha virt. eigenvalues --    0.53458   0.54007   0.54291   0.54719   0.54993
 Alpha virt. eigenvalues --    0.55274   0.55970   0.56319   0.56448   0.57002
 Alpha virt. eigenvalues --    0.57512   0.58146   0.58509   0.58873   0.59434
 Alpha virt. eigenvalues --    0.60305   0.61123   0.62008   0.63232   0.63566
 Alpha virt. eigenvalues --    0.64200   0.64827   0.65198   0.65858   0.66684
 Alpha virt. eigenvalues --    0.66822   0.66920   0.67315   0.67537   0.67693
 Alpha virt. eigenvalues --    0.68068   0.68087   0.68561   0.69096   0.69529
 Alpha virt. eigenvalues --    0.70028   0.70568   0.70773   0.71304   0.71534
 Alpha virt. eigenvalues --    0.72232   0.72530   0.72855   0.73402   0.73815
 Alpha virt. eigenvalues --    0.74132   0.74554   0.75024   0.75416   0.75806
 Alpha virt. eigenvalues --    0.76175   0.76841   0.77632   0.78288   0.78941
 Alpha virt. eigenvalues --    0.79646   0.80487   0.81235   0.81815   0.83210
 Alpha virt. eigenvalues --    0.83517   0.83677   0.84239   0.84655   0.85018
 Alpha virt. eigenvalues --    0.85842   0.86642   0.87232   0.87734   0.89077
 Alpha virt. eigenvalues --    0.89313   0.90968   0.91397   0.91783   0.93851
 Alpha virt. eigenvalues --    0.96103   0.96693   0.97515   0.98170   0.99436
 Alpha virt. eigenvalues --    1.00122   1.00291   1.00940   1.01794   1.03220
 Alpha virt. eigenvalues --    1.03905   1.04830   1.06311   1.07245   1.07844
 Alpha virt. eigenvalues --    1.08580   1.08882   1.09983   1.11556   1.11762
 Alpha virt. eigenvalues --    1.12526   1.12931   1.13742   1.14672   1.15224
 Alpha virt. eigenvalues --    1.15822   1.16314   1.17075   1.17250   1.19008
 Alpha virt. eigenvalues --    1.20032   1.20491   1.22660   1.23166   1.23644
 Alpha virt. eigenvalues --    1.24850   1.26194   1.28020   1.28613   1.29235
 Alpha virt. eigenvalues --    1.29617   1.30204   1.32445   1.32924   1.33144
 Alpha virt. eigenvalues --    1.33851   1.33946   1.34922   1.35328   1.35756
 Alpha virt. eigenvalues --    1.36120   1.36501   1.36925   1.37796   1.38635
 Alpha virt. eigenvalues --    1.39277   1.39943   1.40200   1.40934   1.41378
 Alpha virt. eigenvalues --    1.41957   1.42728   1.44541   1.45013   1.46133
 Alpha virt. eigenvalues --    1.47274   1.48584   1.48763   1.49206   1.49835
 Alpha virt. eigenvalues --    1.50563   1.51658   1.52868   1.53634   1.54819
 Alpha virt. eigenvalues --    1.55389   1.56901   1.59866   1.60311   1.61748
 Alpha virt. eigenvalues --    1.62072   1.66446   1.67064   1.67241   1.68582
 Alpha virt. eigenvalues --    1.71763   1.72100   1.72445   1.73169   1.73781
 Alpha virt. eigenvalues --    1.75264   1.76127   1.77411   1.78576   1.79191
 Alpha virt. eigenvalues --    1.81667   1.83016   1.85262   1.86437   1.88324
 Alpha virt. eigenvalues --    1.89160   1.92424   1.93358   1.97523   2.00845
 Alpha virt. eigenvalues --    2.02226   2.02480   2.02969   2.03921   2.04564
 Alpha virt. eigenvalues --    2.05299   2.06428   2.15630   2.22612   2.25249
 Alpha virt. eigenvalues --    2.25286   2.26489   2.35048   2.45125   2.49950
 Alpha virt. eigenvalues --    2.52098   2.54145   2.54997   2.57186   2.59348
 Alpha virt. eigenvalues --    2.61168   2.62371   2.63111   2.64079   2.65116
 Alpha virt. eigenvalues --    2.65911   2.67713   2.68285   2.68886   2.71680
 Alpha virt. eigenvalues --    2.72902   2.73784   2.74595   2.74999   2.75649
 Alpha virt. eigenvalues --    2.76576   2.77428   2.77671   2.78158   2.79227
 Alpha virt. eigenvalues --    2.79313   2.79522   2.80551   2.80814   2.81673
 Alpha virt. eigenvalues --    2.82203   2.82633   2.83032   2.83327   2.84348
 Alpha virt. eigenvalues --    2.84709   2.85178   2.86076   2.87379   2.87671
 Alpha virt. eigenvalues --    2.87817   2.87974   2.88373   2.89414   2.89890
 Alpha virt. eigenvalues --    2.90137   2.91042   2.91776   2.93289   2.93973
 Alpha virt. eigenvalues --    2.94717   2.95209   2.96643   2.97104   2.97872
 Alpha virt. eigenvalues --    2.98958   3.00576   3.02032   3.02562   3.03930
 Alpha virt. eigenvalues --    3.06250   3.08333   3.08985   3.09287   3.10472
 Alpha virt. eigenvalues --    3.10683   3.11247   3.11628   3.13726   3.14170
 Alpha virt. eigenvalues --    3.15239   3.15844   3.16788   3.17406   3.17548
 Alpha virt. eigenvalues --    3.18404   3.19143   3.19424   3.20258   3.20667
 Alpha virt. eigenvalues --    3.21453   3.22906   3.23536   3.24016   3.25878
 Alpha virt. eigenvalues --    3.26315   3.26809   3.27706   3.28755   3.29385
 Alpha virt. eigenvalues --    3.30606   3.30988   3.32554   3.33839   3.34062
 Alpha virt. eigenvalues --    3.34219   3.35114   3.36254   3.37532   3.38037
 Alpha virt. eigenvalues --    3.38126   3.39257   3.40483   3.41084   3.41889
 Alpha virt. eigenvalues --    3.42315   3.42897   3.43747   3.44499   3.44788
 Alpha virt. eigenvalues --    3.45409   3.47196   3.47850   3.48875   3.49591
 Alpha virt. eigenvalues --    3.49863   3.51072   3.52390   3.53796   3.54341
 Alpha virt. eigenvalues --    3.55267   3.56067   3.57630   3.58369   3.59745
 Alpha virt. eigenvalues --    3.60296   3.60584   3.61676   3.63269   3.64372
 Alpha virt. eigenvalues --    3.65160   3.68230   3.69216   3.70069   3.70805
 Alpha virt. eigenvalues --    3.71646   3.72594   3.73350   3.74515   3.75412
 Alpha virt. eigenvalues --    3.76192   3.76387   3.77555   3.79260   3.79546
 Alpha virt. eigenvalues --    3.80665   3.81465   3.81922   3.82096   3.82526
 Alpha virt. eigenvalues --    3.84420   3.86308   3.86864   3.87865   3.88950
 Alpha virt. eigenvalues --    3.90526   3.91880   3.92616   3.94605   3.95676
 Alpha virt. eigenvalues --    3.96241   3.97190   3.98616   4.00295   4.01015
 Alpha virt. eigenvalues --    4.03455   4.04858   4.05137   4.06021   4.07323
 Alpha virt. eigenvalues --    4.08635   4.09454   4.09690   4.10362   4.11310
 Alpha virt. eigenvalues --    4.12337   4.13490   4.15321   4.16297   4.17217
 Alpha virt. eigenvalues --    4.21045   4.23814   4.24757   4.25351   4.26594
 Alpha virt. eigenvalues --    4.27971   4.31110   4.31272   4.32362   4.34264
 Alpha virt. eigenvalues --    4.35578   4.35947   4.36423   4.36725   4.37439
 Alpha virt. eigenvalues --    4.39625   4.39816   4.40821   4.41491   4.42739
 Alpha virt. eigenvalues --    4.44688   4.45005   4.45691   4.45917   4.46078
 Alpha virt. eigenvalues --    4.47126   4.47605   4.48753   4.49328   4.49901
 Alpha virt. eigenvalues --    4.51426   4.55091   4.56067   4.59465   4.60566
 Alpha virt. eigenvalues --    4.63425   4.64759   4.65630   4.67017   4.67690
 Alpha virt. eigenvalues --    4.69134   4.72248   4.72628   4.73404   4.76787
 Alpha virt. eigenvalues --    4.77848   4.80963   4.84756   4.86889   4.88478
 Alpha virt. eigenvalues --    4.91213   4.94116   4.95712   4.96389   5.00566
 Alpha virt. eigenvalues --    5.01381   5.02295   5.05299   5.06013   5.06469
 Alpha virt. eigenvalues --    5.06567   5.07200   5.08505   5.10164   5.10903
 Alpha virt. eigenvalues --    5.11798   5.16390   5.19731   5.19819   5.23530
 Alpha virt. eigenvalues --    5.26148   5.33102   5.35346   5.37157   5.37673
 Alpha virt. eigenvalues --    5.39743   5.40989   5.45268   5.47023   5.48432
 Alpha virt. eigenvalues --    5.53355   5.58103   5.65500   5.69208   5.70304
 Alpha virt. eigenvalues --    5.72898   5.73404   5.74550   5.74953   5.75688
 Alpha virt. eigenvalues --    5.78551   5.84485   5.92811   5.95547   6.01681
 Alpha virt. eigenvalues --    6.15621   6.19511   6.48898   6.50021   6.57903
 Alpha virt. eigenvalues --    6.74096   6.77872   6.87445   6.93297   6.99228
 Alpha virt. eigenvalues --    7.06037   7.18092   7.25169   7.41186   7.51724
 Alpha virt. eigenvalues --    7.75225   8.07271  23.92394  23.93107  24.39177
 Alpha virt. eigenvalues --   24.47446  24.49040  24.49168  24.49862  24.71724
 Alpha virt. eigenvalues --   24.72989  24.73637  24.73879  24.90564  25.18058
 Alpha virt. eigenvalues --   25.18934  49.98873  50.00618
  Beta  occ. eigenvalues --  -19.70733 -19.69323 -10.56464 -10.55625 -10.55518
  Beta  occ. eigenvalues --  -10.55437 -10.55369 -10.55355 -10.55293 -10.55230
  Beta  occ. eigenvalues --  -10.55170 -10.54572 -10.54494 -10.54451 -10.54380
  Beta  occ. eigenvalues --  -10.54312  -1.22461  -1.01074  -0.97429  -0.96674
  Beta  occ. eigenvalues --   -0.90142  -0.86338  -0.85265  -0.84399  -0.80985
  Beta  occ. eigenvalues --   -0.72374  -0.69869  -0.69090  -0.67761  -0.66045
  Beta  occ. eigenvalues --   -0.61979  -0.59576  -0.57922  -0.55456  -0.53863
  Beta  occ. eigenvalues --   -0.53145  -0.52756  -0.51772  -0.50487  -0.49706
  Beta  occ. eigenvalues --   -0.48899  -0.48689  -0.46694  -0.45050  -0.43920
  Beta  occ. eigenvalues --   -0.42140  -0.41590  -0.41019  -0.40641  -0.38870
  Beta  occ. eigenvalues --   -0.37299  -0.33907  -0.31848  -0.31059  -0.30945
  Beta  occ. eigenvalues --   -0.29475
  Beta virt. eigenvalues --   -0.10217  -0.00405   0.00375   0.00796   0.01198
  Beta virt. eigenvalues --    0.01503   0.01717   0.01891   0.02494   0.03141
  Beta virt. eigenvalues --    0.03429   0.03687   0.04533   0.04561   0.05285
  Beta virt. eigenvalues --    0.06087   0.06483   0.06979   0.07156   0.07487
  Beta virt. eigenvalues --    0.08181   0.08608   0.09413   0.09709   0.09911
  Beta virt. eigenvalues --    0.10951   0.11515   0.12242   0.12709   0.13066
  Beta virt. eigenvalues --    0.13559   0.13904   0.14041   0.14672   0.15148
  Beta virt. eigenvalues --    0.15628   0.15710   0.15816   0.16335   0.16595
  Beta virt. eigenvalues --    0.16793   0.17437   0.18193   0.18534   0.18993
  Beta virt. eigenvalues --    0.19166   0.19744   0.19825   0.20212   0.20707
  Beta virt. eigenvalues --    0.21138   0.21374   0.21718   0.22000   0.22247
  Beta virt. eigenvalues --    0.22382   0.22785   0.23348   0.23423   0.23645
  Beta virt. eigenvalues --    0.23797   0.24171   0.24304   0.24704   0.25009
  Beta virt. eigenvalues --    0.25135   0.25703   0.26558   0.26774   0.27517
  Beta virt. eigenvalues --    0.28003   0.28179   0.28638   0.28898   0.29669
  Beta virt. eigenvalues --    0.30564   0.31280   0.31783   0.32601   0.32960
  Beta virt. eigenvalues --    0.33449   0.34505   0.34762   0.35121   0.35899
  Beta virt. eigenvalues --    0.36206   0.36947   0.37529   0.37909   0.38779
  Beta virt. eigenvalues --    0.40702   0.41408   0.42434   0.43566   0.45105
  Beta virt. eigenvalues --    0.46422   0.47475   0.48771   0.51802   0.52384
  Beta virt. eigenvalues --    0.53302   0.53510   0.53995   0.54368   0.54746
  Beta virt. eigenvalues --    0.55076   0.55292   0.56025   0.56319   0.56511
  Beta virt. eigenvalues --    0.57041   0.57528   0.58169   0.58553   0.58889
  Beta virt. eigenvalues --    0.59528   0.60368   0.61195   0.62037   0.63298
  Beta virt. eigenvalues --    0.63660   0.64232   0.64851   0.65244   0.65871
  Beta virt. eigenvalues --    0.66705   0.66872   0.66991   0.67324   0.67533
  Beta virt. eigenvalues --    0.67717   0.68081   0.68147   0.68579   0.69208
  Beta virt. eigenvalues --    0.69567   0.70053   0.70573   0.70905   0.71347
  Beta virt. eigenvalues --    0.71685   0.72224   0.72571   0.72909   0.73412
  Beta virt. eigenvalues --    0.73846   0.74199   0.74617   0.75149   0.75489
  Beta virt. eigenvalues --    0.75842   0.76281   0.76941   0.77818   0.78348
  Beta virt. eigenvalues --    0.79056   0.79693   0.80546   0.81241   0.81818
  Beta virt. eigenvalues --    0.83217   0.83602   0.83694   0.84317   0.84682
  Beta virt. eigenvalues --    0.85137   0.85940   0.86763   0.87275   0.87898
  Beta virt. eigenvalues --    0.89205   0.89508   0.91235   0.91695   0.91894
  Beta virt. eigenvalues --    0.93919   0.96167   0.96770   0.97637   0.98410
  Beta virt. eigenvalues --    0.99594   1.00173   1.00347   1.01057   1.01996
  Beta virt. eigenvalues --    1.03280   1.03984   1.04845   1.06511   1.07443
  Beta virt. eigenvalues --    1.08002   1.08617   1.08992   1.10270   1.11590
  Beta virt. eigenvalues --    1.11795   1.12605   1.13280   1.13891   1.14870
  Beta virt. eigenvalues --    1.15535   1.15883   1.17010   1.17112   1.17363
  Beta virt. eigenvalues --    1.19265   1.20196   1.20597   1.22964   1.23254
  Beta virt. eigenvalues --    1.23883   1.25136   1.26355   1.28138   1.28674
  Beta virt. eigenvalues --    1.29335   1.29685   1.30301   1.32477   1.32966
  Beta virt. eigenvalues --    1.33201   1.33967   1.34087   1.35055   1.35337
  Beta virt. eigenvalues --    1.35797   1.36174   1.36545   1.37023   1.37854
  Beta virt. eigenvalues --    1.38646   1.39329   1.40034   1.40265   1.41029
  Beta virt. eigenvalues --    1.41620   1.42075   1.42738   1.44699   1.45262
  Beta virt. eigenvalues --    1.46202   1.47290   1.48598   1.48791   1.49227
  Beta virt. eigenvalues --    1.49912   1.50696   1.51891   1.53162   1.53796
  Beta virt. eigenvalues --    1.54930   1.55680   1.56996   1.60060   1.60604
  Beta virt. eigenvalues --    1.61894   1.62502   1.66705   1.67120   1.67626
  Beta virt. eigenvalues --    1.68700   1.71857   1.72120   1.72469   1.73196
  Beta virt. eigenvalues --    1.73823   1.75313   1.76134   1.77484   1.78691
  Beta virt. eigenvalues --    1.79280   1.81755   1.83219   1.85392   1.86568
  Beta virt. eigenvalues --    1.88367   1.89271   1.93336   1.94163   1.97869
  Beta virt. eigenvalues --    2.00876   2.02272   2.02510   2.03016   2.03966
  Beta virt. eigenvalues --    2.04665   2.05381   2.06608   2.16464   2.22868
  Beta virt. eigenvalues --    2.25398   2.25546   2.27201   2.35594   2.46466
  Beta virt. eigenvalues --    2.50069   2.51995   2.54173   2.55009   2.57218
  Beta virt. eigenvalues --    2.59172   2.60768   2.62414   2.63193   2.64153
  Beta virt. eigenvalues --    2.65127   2.65929   2.67663   2.68431   2.68802
  Beta virt. eigenvalues --    2.71738   2.73074   2.73795   2.74686   2.74993
  Beta virt. eigenvalues --    2.75722   2.76664   2.77493   2.77684   2.78265
  Beta virt. eigenvalues --    2.79256   2.79341   2.79585   2.80621   2.80864
  Beta virt. eigenvalues --    2.81761   2.82224   2.82684   2.83097   2.83422
  Beta virt. eigenvalues --    2.84369   2.84685   2.85204   2.86105   2.87413
  Beta virt. eigenvalues --    2.87693   2.87897   2.88048   2.88434   2.89437
  Beta virt. eigenvalues --    2.89934   2.90171   2.91147   2.91794   2.93356
  Beta virt. eigenvalues --    2.94029   2.94683   2.95259   2.96646   2.97142
  Beta virt. eigenvalues --    2.97928   2.99050   3.00526   3.02211   3.02679
  Beta virt. eigenvalues --    3.03982   3.06243   3.08361   3.09089   3.09231
  Beta virt. eigenvalues --    3.10535   3.10789   3.11275   3.11666   3.13840
  Beta virt. eigenvalues --    3.14198   3.15284   3.15893   3.16825   3.17456
  Beta virt. eigenvalues --    3.17610   3.18454   3.19182   3.19469   3.20412
  Beta virt. eigenvalues --    3.20712   3.21532   3.23047   3.23639   3.24101
  Beta virt. eigenvalues --    3.25902   3.26410   3.27020   3.27817   3.28881
  Beta virt. eigenvalues --    3.29397   3.30685   3.31053   3.32495   3.33848
  Beta virt. eigenvalues --    3.34232   3.34344   3.35138   3.36282   3.37584
  Beta virt. eigenvalues --    3.38124   3.38241   3.39516   3.40535   3.41142
  Beta virt. eigenvalues --    3.41981   3.42412   3.42981   3.43765   3.44597
  Beta virt. eigenvalues --    3.44869   3.45467   3.47296   3.47994   3.49005
  Beta virt. eigenvalues --    3.49691   3.49916   3.51267   3.52592   3.54034
  Beta virt. eigenvalues --    3.54602   3.55217   3.56285   3.57733   3.58533
  Beta virt. eigenvalues --    3.59790   3.60440   3.60661   3.61749   3.63359
  Beta virt. eigenvalues --    3.64590   3.65371   3.68354   3.69232   3.70285
  Beta virt. eigenvalues --    3.70833   3.71619   3.72664   3.73455   3.74595
  Beta virt. eigenvalues --    3.75466   3.76240   3.76513   3.77657   3.79314
  Beta virt. eigenvalues --    3.79621   3.80723   3.81531   3.81997   3.82133
  Beta virt. eigenvalues --    3.82564   3.84497   3.86382   3.86954   3.87920
  Beta virt. eigenvalues --    3.89048   3.90597   3.91953   3.92612   3.94695
  Beta virt. eigenvalues --    3.95705   3.96274   3.97224   3.98701   4.00266
  Beta virt. eigenvalues --    4.01100   4.03507   4.04923   4.05202   4.06031
  Beta virt. eigenvalues --    4.07294   4.08668   4.09478   4.09696   4.10454
  Beta virt. eigenvalues --    4.11283   4.12347   4.13515   4.15298   4.16442
  Beta virt. eigenvalues --    4.17315   4.21089   4.23883   4.24786   4.25414
  Beta virt. eigenvalues --    4.26633   4.27929   4.31153   4.31392   4.32349
  Beta virt. eigenvalues --    4.34273   4.35575   4.36059   4.36567   4.36769
  Beta virt. eigenvalues --    4.37397   4.39716   4.39924   4.40886   4.41588
  Beta virt. eigenvalues --    4.42784   4.44797   4.45086   4.45769   4.45992
  Beta virt. eigenvalues --    4.46113   4.47125   4.47637   4.48821   4.49333
  Beta virt. eigenvalues --    4.49934   4.51460   4.55182   4.56175   4.59499
  Beta virt. eigenvalues --    4.60976   4.63546   4.64833   4.65674   4.67276
  Beta virt. eigenvalues --    4.67798   4.69402   4.72470   4.72691   4.73391
  Beta virt. eigenvalues --    4.76807   4.77892   4.81251   4.84881   4.86879
  Beta virt. eigenvalues --    4.88966   4.91773   4.94265   4.95801   4.96667
  Beta virt. eigenvalues --    5.01089   5.01490   5.02441   5.06215   5.06258
  Beta virt. eigenvalues --    5.06649   5.07291   5.07491   5.09813   5.10469
  Beta virt. eigenvalues --    5.11272   5.12798   5.16793   5.19910   5.20192
  Beta virt. eigenvalues --    5.24021   5.26529   5.34057   5.36674   5.37807
  Beta virt. eigenvalues --    5.38488   5.39997   5.41148   5.45355   5.47314
  Beta virt. eigenvalues --    5.48801   5.53360   5.58794   5.65286   5.69276
  Beta virt. eigenvalues --    5.70317   5.73011   5.73447   5.74609   5.75043
  Beta virt. eigenvalues --    5.75692   5.78648   5.84593   5.93166   5.96727
  Beta virt. eigenvalues --    6.01924   6.15754   6.19691   6.49002   6.50027
  Beta virt. eigenvalues --    6.58719   6.78694   6.82191   6.88247   6.94567
  Beta virt. eigenvalues --    7.02191   7.07678   7.18716   7.26646   7.41982
  Beta virt. eigenvalues --    7.56399   7.76682   8.08263  23.92408  23.93105
  Beta virt. eigenvalues --   24.39215  24.47454  24.49045  24.49197  24.49860
  Beta virt. eigenvalues --   24.71748  24.72997  24.73647  24.73884  24.90664
  Beta virt. eigenvalues --   25.18086  25.18937  49.98637  50.00130
          Condensed to atoms (all electrons):
               1          2          3          4          5          6
     1  C    5.463039   0.212965   0.274719  -0.644664  -0.157635   0.692577
     2  C    0.212965   6.507979  -1.311368   0.783687   0.381361   0.025899
     3  C    0.274719  -1.311368  11.437382  -2.264677  -0.104286  -3.375400
     4  C   -0.644664   0.783687  -2.264677  10.069891   0.914628  -0.636304
     5  C   -0.157635   0.381361  -0.104286   0.914628   8.312919  -3.295199
     6  C    0.692577   0.025899  -3.375400  -0.636304  -3.295199  12.942226
     7  H    0.329906   0.029538  -0.013634   0.017907   0.033427  -0.023789
     8  H    0.044938  -0.011858  -0.000252   0.003802   0.311001   0.027343
     9  H   -0.007412  -0.004662  -0.020228  -0.019190   0.042415   0.321805
    10  H   -0.010258   0.034749   0.346559  -0.032978   0.006347  -0.029784
    11  H    0.040289   0.321047   0.019578   0.004608  -0.006731  -0.005774
    12  C   -0.213915  -0.620092   0.908034  -2.252698   0.532261  -1.114863
    13  C    0.141602  -0.042649   0.529282  -1.676652  -0.721642   0.820681
    14  H    0.000969  -0.002625  -0.043884  -0.054839   0.003058   0.036665
    15  C   -0.038927   0.185297  -0.181666   0.913344   0.255439  -0.233012
    16  H    0.001984  -0.007896   0.006229  -0.090129  -0.002537   0.003311
    17  C   -0.003815  -0.056631  -0.174567  -0.304416   0.027063   0.145316
    18  C    0.002498  -0.001614  -0.024611   0.279027  -0.006787   0.026677
    19  H   -0.000073  -0.001095  -0.004128   0.001971   0.000491   0.001660
    20  C    0.008077   0.030185   0.251048  -0.001850  -0.152459  -0.238454
    21  C   -0.000044   0.000481   0.007732  -0.021312  -0.001870  -0.013955
    22  H    0.000001   0.000007   0.000110  -0.000645  -0.000008  -0.000054
    23  C   -0.000972  -0.002028   0.003566  -0.010527   0.016830  -0.010266
    24  H    0.000029   0.000144  -0.000277   0.005470  -0.000703  -0.000077
    25  H    0.000000  -0.000003  -0.000000  -0.000483  -0.000001   0.000009
    26  H    0.000000  -0.000000   0.000009  -0.000057  -0.000001  -0.000010
    27  O    0.000373   0.010285  -0.035982   0.071251  -0.018450   0.067917
    28  O   -0.002242  -0.000191   0.003182   0.000601   0.011446  -0.034623
    29  H    0.000048   0.000044  -0.000553  -0.000407  -0.000527   0.002308
               7          8          9         10         11         12
     1  C    0.329906   0.044938  -0.007412  -0.010258   0.040289  -0.213915
     2  C    0.029538  -0.011858  -0.004662   0.034749   0.321047  -0.620092
     3  C   -0.013634  -0.000252  -0.020228   0.346559   0.019578   0.908034
     4  C    0.017907   0.003802  -0.019190  -0.032978   0.004608  -2.252698
     5  C    0.033427   0.311001   0.042415   0.006347  -0.006731   0.532261
     6  C   -0.023789   0.027343   0.321805  -0.029784  -0.005774  -1.114863
     7  H    0.484709  -0.006790  -0.000072  -0.000100  -0.006624   0.007702
     8  H   -0.006790   0.489979  -0.006428   0.000043  -0.000069   0.002553
     9  H   -0.000072  -0.006428   0.464741  -0.000089   0.000043   0.055224
    10  H   -0.000100   0.000043  -0.000089   0.477766  -0.006806   0.051226
    11  H   -0.006624  -0.000069   0.000043  -0.006806   0.489766   0.005070
    12  C    0.007702   0.002553   0.055224   0.051226   0.005070  10.216107
    13  C   -0.000735   0.001166   0.005824   0.007847   0.000325  -0.263496
    14  H   -0.000001   0.000015   0.000531   0.000400   0.000010   0.348562
    15  C   -0.000056  -0.000690   0.004617   0.004058  -0.000452  -1.339237
    16  H    0.000002   0.000044   0.001176   0.000358   0.000004   0.008096
    17  C   -0.000010  -0.000008   0.001382   0.001225   0.000001   1.031398
    18  C   -0.000001  -0.000004   0.000207  -0.000379  -0.000001  -0.118212
    19  H   -0.000000   0.000000  -0.000001   0.000052  -0.000000   0.021960
    20  C    0.000001   0.000082  -0.004656  -0.000477  -0.000001  -0.810269
    21  C   -0.000000   0.000001  -0.000029   0.000042   0.000000   0.009240
    22  H   -0.000000   0.000000   0.000000  -0.000000   0.000000  -0.000581
    23  C    0.000000   0.000006  -0.000809   0.000069  -0.000002   0.029664
    24  H    0.000000  -0.000000   0.000042  -0.000000   0.000000   0.001873
    25  H   -0.000000   0.000000   0.000000   0.000000   0.000000   0.000236
    26  H   -0.000000   0.000000  -0.000000  -0.000000   0.000000  -0.000341
    27  O    0.000004  -0.000030  -0.002933  -0.000183  -0.000003  -0.033731
    28  O    0.000000   0.000000   0.000174   0.000013   0.000000   0.046950
    29  H    0.000000  -0.000000  -0.000010  -0.000000   0.000000   0.002292
              13         14         15         16         17         18
     1  C    0.141602   0.000969  -0.038927   0.001984  -0.003815   0.002498
     2  C   -0.042649  -0.002625   0.185297  -0.007896  -0.056631  -0.001614
     3  C    0.529282  -0.043884  -0.181666   0.006229  -0.174567  -0.024611
     4  C   -1.676652  -0.054839   0.913344  -0.090129  -0.304416   0.279027
     5  C   -0.721642   0.003058   0.255439  -0.002537   0.027063  -0.006787
     6  C    0.820681   0.036665  -0.233012   0.003311   0.145316   0.026677
     7  H   -0.000735  -0.000001  -0.000056   0.000002  -0.000010  -0.000001
     8  H    0.001166   0.000015  -0.000690   0.000044  -0.000008  -0.000004
     9  H    0.005824   0.000531   0.004617   0.001176   0.001382   0.000207
    10  H    0.007847   0.000400   0.004058   0.000358   0.001225  -0.000379
    11  H    0.000325   0.000010  -0.000452   0.000004   0.000001  -0.000001
    12  C   -0.263496   0.348562  -1.339237   0.008096   1.031398  -0.118212
    13  C    9.170824   0.013756  -1.597719   0.339130  -0.211891  -0.211054
    14  H    0.013756   0.465137   0.037709   0.007483  -0.009212  -0.004851
    15  C   -1.597719   0.037709  10.247296  -0.102357  -0.968791   0.199752
    16  H    0.339130   0.007483  -0.102357   0.398122   0.018818  -0.014815
    17  C   -0.211891  -0.009212  -0.968791   0.018818  12.656368  -1.310946
    18  C   -0.211054  -0.004851   0.199752  -0.014815  -1.310946   6.750824
    19  H    0.055383  -0.000075  -0.074041   0.000641   0.424190   0.013458
    20  C    0.353358   0.017832  -1.963218  -0.009423  -5.771412   0.248796
    21  C   -0.216706   0.001321  -0.626477   0.004412   0.004614   0.316295
    22  H   -0.002776   0.000017   0.021398   0.000023  -0.006019   0.331384
    23  C    0.169460   0.002235   0.232564   0.026428   0.631995   0.001426
    24  H    0.037781   0.000151  -0.031254  -0.000677  -0.034968   0.004825
    25  H    0.001151   0.000004   0.002057   0.000034  -0.001075  -0.009205
    26  H    0.005416   0.000000   0.013876   0.000000  -0.014797   0.024613
    27  O    0.030734  -0.002404   0.021986  -0.085897  -0.069696   0.018771
    28  O    0.033021   0.000245   0.023212   0.033576   0.036872  -0.010830
    29  H    0.001559  -0.000006  -0.017420   0.003743  -0.009404  -0.000138
              19         20         21         22         23         24
     1  C   -0.000073   0.008077  -0.000044   0.000001  -0.000972   0.000029
     2  C   -0.001095   0.030185   0.000481   0.000007  -0.002028   0.000144
     3  C   -0.004128   0.251048   0.007732   0.000110   0.003566  -0.000277
     4  C    0.001971  -0.001850  -0.021312  -0.000645  -0.010527   0.005470
     5  C    0.000491  -0.152459  -0.001870  -0.000008   0.016830  -0.000703
     6  C    0.001660  -0.238454  -0.013955  -0.000054  -0.010266  -0.000077
     7  H   -0.000000   0.000001  -0.000000  -0.000000   0.000000   0.000000
     8  H    0.000000   0.000082   0.000001   0.000000   0.000006  -0.000000
     9  H   -0.000001  -0.004656  -0.000029   0.000000  -0.000809   0.000042
    10  H    0.000052  -0.000477   0.000042  -0.000000   0.000069  -0.000000
    11  H   -0.000000  -0.000001   0.000000   0.000000  -0.000002   0.000000
    12  C    0.021960  -0.810269   0.009240  -0.000581   0.029664   0.001873
    13  C    0.055383   0.353358  -0.216706  -0.002776   0.169460   0.037781
    14  H   -0.000075   0.017832   0.001321   0.000017   0.002235   0.000151
    15  C   -0.074041  -1.963218  -0.626477   0.021398   0.232564  -0.031254
    16  H    0.000641  -0.009423   0.004412   0.000023   0.026428  -0.000677
    17  C    0.424190  -5.771412   0.004614  -0.006019   0.631995  -0.034968
    18  C    0.013458   0.248796   0.316295   0.331384   0.001426   0.004825
    19  H    0.463102  -0.056790  -0.006826  -0.006617   0.000301  -0.000096
    20  C   -0.056790  15.505343   0.465161   0.005665  -1.818681   0.405813
    21  C   -0.006826   0.465161   5.580424   0.040058   0.207329  -0.010357
    22  H   -0.006617   0.005665   0.040058   0.487077  -0.010209   0.000044
    23  C    0.000301  -1.818681   0.207329  -0.010209   6.571878   0.000636
    24  H   -0.000096   0.405813  -0.010357   0.000044   0.000636   0.462050
    25  H    0.000040   0.014097   0.047258  -0.000067   0.324161  -0.006545
    26  H   -0.000096  -0.010411   0.340499  -0.006630   0.022024  -0.000089
    27  O   -0.000727  -0.034460  -0.011882  -0.000004  -0.009827  -0.000126
    28  O    0.000091  -0.066485   0.003341   0.000001   0.022675  -0.000734
    29  H   -0.000011   0.020272   0.000388   0.000000  -0.000644   0.000008
              25         26         27         28         29
     1  C    0.000000   0.000000   0.000373  -0.002242   0.000048
     2  C   -0.000003  -0.000000   0.010285  -0.000191   0.000044
     3  C   -0.000000   0.000009  -0.035982   0.003182  -0.000553
     4  C   -0.000483  -0.000057   0.071251   0.000601  -0.000407
     5  C   -0.000001  -0.000001  -0.018450   0.011446  -0.000527
     6  C    0.000009  -0.000010   0.067917  -0.034623   0.002308
     7  H   -0.000000  -0.000000   0.000004   0.000000   0.000000
     8  H    0.000000   0.000000  -0.000030   0.000000  -0.000000
     9  H    0.000000  -0.000000  -0.002933   0.000174  -0.000010
    10  H    0.000000  -0.000000  -0.000183   0.000013  -0.000000
    11  H    0.000000   0.000000  -0.000003   0.000000   0.000000
    12  C    0.000236  -0.000341  -0.033731   0.046950   0.002292
    13  C    0.001151   0.005416   0.030734   0.033021   0.001559
    14  H    0.000004   0.000000  -0.002404   0.000245  -0.000006
    15  C    0.002057   0.013876   0.021986   0.023212  -0.017420
    16  H    0.000034   0.000000  -0.085897   0.033576   0.003743
    17  C   -0.001075  -0.014797  -0.069696   0.036872  -0.009404
    18  C   -0.009205   0.024613   0.018771  -0.010830  -0.000138
    19  H    0.000040  -0.000096  -0.000727   0.000091  -0.000011
    20  C    0.014097  -0.010411  -0.034460  -0.066485   0.020272
    21  C    0.047258   0.340499  -0.011882   0.003341   0.000388
    22  H   -0.000067  -0.006630  -0.000004   0.000001   0.000000
    23  C    0.324161   0.022024  -0.009827   0.022675  -0.000644
    24  H   -0.006545  -0.000089  -0.000126  -0.000734   0.000008
    25  H    0.486485  -0.006582  -0.000029   0.000014  -0.000009
    26  H   -0.006582   0.480885   0.000001  -0.000002   0.000000
    27  O   -0.000029   0.000001   8.343957  -0.033476  -0.028490
    28  O    0.000014  -0.000002  -0.033476   7.865721   0.238400
    29  H   -0.000009   0.000000  -0.028490   0.238400   0.525893
          Atomic-Atomic Spin Densities.
               1          2          3          4          5          6
     1  C    0.008255  -0.013711   0.000512  -0.009620  -0.043615   0.073866
     2  C   -0.013711  -0.011551   0.008178   0.015198   0.028989  -0.032479
     3  C    0.000512   0.008178  -0.084665   0.037173   0.009958   0.041918
     4  C   -0.009620   0.015198   0.037173  -0.018428   0.078317  -0.120123
     5  C   -0.043615   0.028989   0.009958   0.078317   0.051596  -0.196329
     6  C    0.073866  -0.032479   0.041918  -0.120123  -0.196329   0.349620
     7  H   -0.000036   0.000430  -0.000140   0.000034   0.000111  -0.000416
     8  H    0.000575  -0.000184  -0.000269  -0.001183  -0.002742   0.003950
     9  H   -0.001881   0.000167   0.003753   0.008938   0.004645  -0.020301
    10  H   -0.000043  -0.000039   0.000867  -0.000169  -0.000182  -0.000352
    11  H    0.000299  -0.000129   0.000089  -0.000336  -0.000085   0.000075
    12  C   -0.024399   0.020546  -0.019440   0.050674   0.088650  -0.179512
    13  C    0.006089  -0.010594   0.015613  -0.032041  -0.022442   0.046417
    14  H    0.000121  -0.000251  -0.002064   0.001997  -0.003180   0.000326
    15  C   -0.000422  -0.003436   0.007780  -0.006059  -0.010877  -0.016294
    16  H    0.000761  -0.001687  -0.005518   0.017653  -0.010238   0.016954
    17  C    0.001630   0.000300  -0.000623   0.027378  -0.009661   0.016108
    18  C    0.000378  -0.000019  -0.000237   0.009234  -0.001634   0.005410
    19  H    0.000007   0.000018   0.000032   0.000001  -0.000044   0.000004
    20  C   -0.000908  -0.001958  -0.013977  -0.015408   0.017476   0.013336
    21  C    0.000014  -0.000117  -0.001373   0.002900   0.000166   0.001782
    22  H    0.000000   0.000000   0.000003  -0.000011  -0.000000  -0.000004
    23  C   -0.000287   0.000147   0.000483  -0.002292   0.002231  -0.007614
    24  H   -0.000001  -0.000002   0.000066   0.000024  -0.000096  -0.000243
    25  H    0.000000  -0.000000  -0.000002   0.000006  -0.000000   0.000004
    26  H    0.000000  -0.000000  -0.000000  -0.000000   0.000000   0.000001
    27  O   -0.000438   0.001500   0.007049  -0.018426   0.008830  -0.009740
    28  O    0.000004  -0.000108  -0.001380   0.002555  -0.001197   0.000232
    29  H   -0.000002  -0.000002   0.000036  -0.000162   0.000031  -0.000134
               7          8          9         10         11         12
     1  C   -0.000036   0.000575  -0.001881  -0.000043   0.000299  -0.024399
     2  C    0.000430  -0.000184   0.000167  -0.000039  -0.000129   0.020546
     3  C   -0.000140  -0.000269   0.003753   0.000867   0.000089  -0.019440
     4  C    0.000034  -0.001183   0.008938  -0.000169  -0.000336   0.050674
     5  C    0.000111  -0.002742   0.004645  -0.000182  -0.000085   0.088650
     6  C   -0.000416   0.003950  -0.020301  -0.000352   0.000075  -0.179512
     7  H    0.000234  -0.000011   0.000001  -0.000001  -0.000003   0.000018
     8  H   -0.000011   0.000106  -0.000066   0.000001   0.000001  -0.000559
     9  H    0.000001  -0.000066   0.000345  -0.000002  -0.000000   0.005527
    10  H   -0.000001   0.000001  -0.000002   0.000378  -0.000003  -0.001332
    11  H   -0.000003   0.000001  -0.000000  -0.000003  -0.000147   0.000069
    12  C    0.000018  -0.000559   0.005527  -0.001332   0.000069   0.172425
    13  C   -0.000025   0.000310  -0.002155   0.000779   0.000030  -0.119487
    14  H   -0.000000   0.000002  -0.000049   0.000127   0.000001  -0.004134
    15  C    0.000001   0.000024  -0.000407   0.000035   0.000002  -0.017086
    16  H   -0.000000   0.000014  -0.000449   0.000098   0.000000  -0.043010
    17  C   -0.000000   0.000015  -0.000600   0.000349  -0.000001  -0.030287
    18  C   -0.000000   0.000001  -0.000066   0.000069   0.000000  -0.021133
    19  H   -0.000000   0.000000  -0.000000   0.000004  -0.000000  -0.000652
    20  C   -0.000000  -0.000023   0.001054  -0.000067   0.000001   0.015635
    21  C   -0.000000   0.000000   0.000004   0.000008   0.000000  -0.001330
    22  H   -0.000000   0.000000   0.000000   0.000000   0.000000  -0.000029
    23  C    0.000000  -0.000002   0.000272  -0.000003  -0.000000   0.015462
    24  H   -0.000000   0.000000  -0.000002   0.000000   0.000000  -0.000418
    25  H   -0.000000   0.000000  -0.000000   0.000000   0.000000  -0.000002
    26  H    0.000000  -0.000000   0.000000  -0.000000  -0.000000   0.000001
    27  O    0.000001  -0.000008   0.000256  -0.000070  -0.000001   0.040403
    28  O   -0.000000   0.000002   0.000001   0.000009   0.000000  -0.006637
    29  H    0.000000  -0.000000   0.000003   0.000000   0.000000   0.000046
              13         14         15         16         17         18
     1  C    0.006089   0.000121  -0.000422   0.000761   0.001630   0.000378
     2  C   -0.010594  -0.000251  -0.003436  -0.001687   0.000300  -0.000019
     3  C    0.015613  -0.002064   0.007780  -0.005518  -0.000623  -0.000237
     4  C   -0.032041   0.001997  -0.006059   0.017653   0.027378   0.009234
     5  C   -0.022442  -0.003180  -0.010877  -0.010238  -0.009661  -0.001634
     6  C    0.046417   0.000326  -0.016294   0.016954   0.016108   0.005410
     7  H   -0.000025  -0.000000   0.000001  -0.000000  -0.000000  -0.000000
     8  H    0.000310   0.000002   0.000024   0.000014   0.000015   0.000001
     9  H   -0.002155  -0.000049  -0.000407  -0.000449  -0.000600  -0.000066
    10  H    0.000779   0.000127   0.000035   0.000098   0.000349   0.000069
    11  H    0.000030   0.000001   0.000002   0.000000  -0.000001   0.000000
    12  C   -0.119487  -0.004134  -0.017086  -0.043010  -0.030287  -0.021133
    13  C    0.545375  -0.001519   0.015285   0.042159  -0.111390  -0.022958
    14  H   -0.001519   0.020845   0.000472   0.001099   0.007516   0.001452
    15  C    0.015285   0.000472  -0.034427   0.014394  -0.034728  -0.033765
    16  H    0.042159   0.001099   0.014394  -0.023315   0.050109   0.008481
    17  C   -0.111390   0.007516  -0.034728   0.050109   0.254732  -0.001948
    18  C   -0.022958   0.001452  -0.033765   0.008481  -0.001948   0.043045
    19  H   -0.000748   0.000092  -0.000976   0.000222  -0.000602   0.002760
    20  C    0.099806   0.000507   0.105709  -0.029776  -0.094093   0.008188
    21  C   -0.019985   0.000720   0.004115   0.002791   0.026619   0.015997
    22  H   -0.000395   0.000003  -0.000167   0.000004  -0.000053  -0.000274
    23  C   -0.003130  -0.000986  -0.013509  -0.007446  -0.008966  -0.016647
    24  H   -0.000688   0.000027  -0.001275   0.000215   0.000850  -0.000281
    25  H   -0.000152   0.000001   0.000730   0.000004  -0.000090   0.000108
    26  H    0.000127  -0.000000   0.000206  -0.000001  -0.000272   0.000249
    27  O   -0.108220  -0.001195  -0.014350  -0.038421  -0.072235  -0.008682
    28  O    0.016779   0.000107   0.001021   0.010812   0.014787   0.001924
    29  H   -0.000057   0.000001  -0.001423   0.001577   0.000267  -0.000206
              19         20         21         22         23         24
     1  C    0.000007  -0.000908   0.000014   0.000000  -0.000287  -0.000001
     2  C    0.000018  -0.001958  -0.000117   0.000000   0.000147  -0.000002
     3  C    0.000032  -0.013977  -0.001373   0.000003   0.000483   0.000066
     4  C    0.000001  -0.015408   0.002900  -0.000011  -0.002292   0.000024
     5  C   -0.000044   0.017476   0.000166  -0.000000   0.002231  -0.000096
     6  C    0.000004   0.013336   0.001782  -0.000004  -0.007614  -0.000243
     7  H   -0.000000  -0.000000  -0.000000  -0.000000   0.000000  -0.000000
     8  H    0.000000  -0.000023   0.000000   0.000000  -0.000002   0.000000
     9  H   -0.000000   0.001054   0.000004   0.000000   0.000272  -0.000002
    10  H    0.000004  -0.000067   0.000008   0.000000  -0.000003   0.000000
    11  H   -0.000000   0.000001   0.000000   0.000000  -0.000000   0.000000
    12  C   -0.000652   0.015635  -0.001330  -0.000029   0.015462  -0.000418
    13  C   -0.000748   0.099806  -0.019985  -0.000395  -0.003130  -0.000688
    14  H    0.000092   0.000507   0.000720   0.000003  -0.000986   0.000027
    15  C   -0.000976   0.105709   0.004115  -0.000167  -0.013509  -0.001275
    16  H    0.000222  -0.029776   0.002791   0.000004  -0.007446   0.000215
[...]
   A26        2.06663   0.00033  -0.00212  -0.00383  -0.00600   2.06063
   A27        2.06403   0.00055   0.00185   0.00335   0.00517   2.06920
   A28        2.79282  -0.00902  -0.01958  -0.06501  -0.08458   2.70823
   A29        2.10508  -0.00009  -0.00120  -0.00209  -0.00328   2.10180
   A30        2.08857  -0.00033   0.00023  -0.00157  -0.00134   2.08722
   A31        2.08907   0.00042   0.00102   0.00364   0.00466   2.09372
   A32        2.10399  -0.00016   0.00019  -0.00012   0.00006   2.10406
   A33        2.08640   0.00002   0.00003   0.00074   0.00077   2.08717
   A34        2.09271   0.00013  -0.00022  -0.00064  -0.00085   2.09186
   A35        2.11418  -0.00086  -0.00095  -0.00228  -0.00323   2.11095
   A36        2.07361   0.00059   0.00016   0.00108   0.00122   2.07484
   A37        2.09441   0.00028   0.00103   0.00114   0.00216   2.09657
   A38        2.08513   0.00042   0.00043   0.00210   0.00252   2.08765
   A39        2.09809  -0.00012  -0.00072  -0.00116  -0.00188   2.09621
   A40        2.09995  -0.00030   0.00029  -0.00093  -0.00064   2.09932
   A41        2.09388   0.00013  -0.00034  -0.00085  -0.00119   2.09269
   A42        2.09136  -0.00018  -0.00050  -0.00049  -0.00099   2.09037
   A43        2.09791   0.00005   0.00084   0.00132   0.00217   2.10008
   A44        1.53602  -0.00335  -0.01710  -0.03799  -0.05509   1.48093
   A45        1.87032  -0.00399   0.00059  -0.00819  -0.00759   1.86272
    D1        0.00320  -0.00005   0.00183   0.00174   0.00357   0.00677
    D2       -3.13017  -0.00026   0.00523  -0.00288   0.00236  -3.12781
    D3        3.13946   0.00007  -0.00159   0.00214   0.00055   3.14001
    D4        0.00609  -0.00014   0.00181  -0.00248  -0.00066   0.00543
    D5        0.00015  -0.00001  -0.00137  -0.00246  -0.00383  -0.00369
    D6       -3.14034  -0.00003  -0.00263  -0.00317  -0.00579   3.13706
    D7       -3.13612  -0.00013   0.00204  -0.00286  -0.00082  -3.13694
    D8        0.00658  -0.00016   0.00078  -0.00356  -0.00277   0.00380
    D9       -0.00204   0.00003   0.00093   0.00161   0.00254   0.00050
   D10       -3.13216  -0.00025   0.00392  -0.00450  -0.00057  -3.13273
   D11        3.13139   0.00024  -0.00245   0.00620   0.00375   3.13513
   D12        0.00126  -0.00004   0.00054   0.00009   0.00064   0.00190
   D13       -0.00242   0.00004  -0.00405  -0.00415  -0.00820  -0.01062
   D14       -3.14110  -0.00005  -0.00282  -0.01074  -0.01352   3.12856
   D15        3.12778   0.00032  -0.00702   0.00191  -0.00511   3.12267
   D16       -0.01090   0.00023  -0.00579  -0.00467  -0.01044  -0.02134
   D17        0.00578  -0.00010   0.00450   0.00342   0.00791   0.01369
   D18       -3.14158   0.00002   0.00594   0.00809   0.01405  -3.12753
   D19       -3.13882  -0.00002   0.00322   0.01020   0.01343  -3.12538
   D20       -0.00300   0.00010   0.00467   0.01487   0.01958   0.01658
   D21       -3.10401  -0.00012   0.04896   0.01299   0.06193  -3.04208
   D22        0.01680  -0.00003   0.04315  -0.00085   0.04233   0.05913
   D23        0.04062  -0.00020   0.05025   0.00613   0.05635   0.09697
   D24       -3.12175  -0.00012   0.04443  -0.00770   0.03675  -3.08500
   D25       -0.00471   0.00009  -0.00184  -0.00016  -0.00200  -0.00671
   D26       -3.14058  -0.00004  -0.00330  -0.00482  -0.00808   3.13452
   D27        3.13578   0.00011  -0.00059   0.00055  -0.00006   3.13573
   D28       -0.00009  -0.00001  -0.00205  -0.00412  -0.00614  -0.00623
   D29       -3.13277   0.00016  -0.00598  -0.00732  -0.01329   3.13712
   D30        0.00933  -0.00001  -0.00255  -0.02063  -0.02323  -0.01389
   D31        0.03030   0.00006   0.00004   0.00704   0.00712   0.03742
   D32       -3.11078  -0.00010   0.00347  -0.00628  -0.00281  -3.11360
   D33        0.50926  -0.00099  -0.02510  -0.00064  -0.02577   0.48350
   D34       -2.65679  -0.00131  -0.03154  -0.00892  -0.04041  -2.69719
   D35       -2.63281  -0.00083  -0.02834   0.01190  -0.01649  -2.64930
   D36        0.48432  -0.00115  -0.03477   0.00362  -0.03113   0.45319
   D37        3.08188  -0.00101   0.06651   0.03374   0.10021  -3.10110
   D38       -0.05926  -0.00115   0.06954   0.02215   0.09174   0.03247
   D39        3.13010  -0.00019  -0.00450  -0.01553  -0.02008   3.11002
   D40        0.02158  -0.00033  -0.00629  -0.01484  -0.02117   0.00040
   D41        0.01293   0.00013   0.00195  -0.00718  -0.00522   0.00771
   D42       -3.09560  -0.00001   0.00016  -0.00649  -0.00632  -3.10191
   D43       -3.13159   0.00029   0.00596   0.01775   0.02370  -3.10790
   D44        0.05767  -0.00008   0.00061   0.01914   0.01975   0.07743
   D45       -0.01320  -0.00003  -0.00015   0.00987   0.00971  -0.00349
   D46       -3.10712  -0.00041  -0.00550   0.01126   0.00577  -3.10135
   D47        1.12057  -0.00392  -0.09105  -0.28090  -0.37196   0.74861
   D48       -0.00516  -0.00015  -0.00166  -0.00020  -0.00188  -0.00704
   D49       -3.13371  -0.00011  -0.00175   0.00204   0.00029  -3.13342
   D50        3.10335  -0.00002   0.00011  -0.00099  -0.00089   3.10246
   D51       -0.02520   0.00002   0.00003   0.00125   0.00128  -0.02392
   D52       -0.00273   0.00007  -0.00045   0.00514   0.00470   0.00196
   D53       -3.13921   0.00013   0.00053   0.00288   0.00343  -3.13579
   D54        3.12577   0.00003  -0.00036   0.00290   0.00253   3.12831
   D55       -0.01071   0.00009   0.00062   0.00064   0.00126  -0.00944
   D56        0.00560  -0.00005  -0.00196  -0.00513  -0.00707  -0.00147
   D57       -3.12605  -0.00010  -0.00249  -0.00370  -0.00618  -3.13223
   D58        3.09896   0.00034   0.00342  -0.00653  -0.00311   3.09585
   D59       -0.03269   0.00029   0.00289  -0.00511  -0.00221  -0.03491
   D60        0.00251   0.00003   0.00224  -0.00250  -0.00024   0.00227
   D61        3.13413   0.00008   0.00276  -0.00394  -0.00116   3.13297
   D62        3.13899  -0.00003   0.00125  -0.00023   0.00102   3.14001
   D63       -0.01258   0.00001   0.00178  -0.00167   0.00011  -0.01248
   D64       -0.83006   0.00041   0.17931   0.01137   0.19068  -0.63938
         Item               Value     Threshold  Converged?
 Maximum Force            0.009024     0.002500     NO 
 RMS     Force            0.001286     0.001667     YES
 Maximum Displacement     0.877566     0.010000     NO 
 RMS     Displacement     0.129183     0.006667     NO 
 Predicted change in Energy=-2.082252D-03
 GradGradGradGradGradGradGradGradGradGradGradGradGradGradGradGradGradGrad

                          Input orientation:                          
 ---------------------------------------------------------------------
 Center     Atomic      Atomic             Coordinates (Angstroms)
 Number     Number       Type             X           Y           Z
 ---------------------------------------------------------------------
      1          6           0       -5.962235    1.142234   -0.313481
      2          6           0       -5.530505    1.526671   -1.573569
      3          6           0       -4.189306    1.811085   -1.792506
      4          6           0       -3.254820    1.717204   -0.761386
      5          6           0       -5.044189    1.052190    0.727882
      6          6           0       -3.707239    1.339703    0.509093
      7          1           0       -7.006475    0.921097   -0.137992
      8          1           0       -5.373740    0.756710    1.716285
      9          1           0       -3.017163    1.267555    1.339398
     10          1           0       -3.858275    2.119392   -2.778288
     11          1           0       -6.235980    1.613142   -2.389508
     12          6           0       -1.842024    2.013811   -1.050959
     13          6           0       -0.824952    1.863743   -0.199385
     14          1           0       -1.639386    2.347804   -2.065790
     15          6           0        0.590963    2.137011   -0.435680
     16          1           0       -1.008250    1.504930    0.812803
     17          6           0        1.046893    3.087515   -1.352001
     18          6           0        2.404114    3.323995   -1.501039
     19          1           0        0.331979    3.662020   -1.926240
     20          6           0        1.533111    1.440195    0.330466
     21          6           0        3.332424    2.624936   -0.735009
     22          1           0        2.742183    4.069255   -2.209873
     23          6           0        2.892655    1.681930    0.183507
     24          1           0        1.186133    0.671504    1.018826
     25          1           0        3.604373    1.126348    0.779111
     26          1           0        4.389720    2.819143   -0.853457
     27          8           0       -0.417766    0.910594    2.965363
     28          8           0        0.315337    1.986335    2.935884
     29          1           0        0.673060    2.059751    2.024016
 ---------------------------------------------------------------------
                    Distance matrix (angstroms):
                    1          2          3          4          5
     1  C    0.000000
     2  C    1.386363   0.000000
     3  C    2.403779   1.388395   0.000000
     4  C    2.803802   2.423775   1.394735   0.000000
     5  C    1.391170   2.399648   2.767508   2.421157   0.000000
     6  C    2.408449   2.774299   2.398321   1.400466   1.384907
     7  H    1.081728   2.146180   3.386139   3.885527   2.148834
     8  H    2.148233   3.382389   3.850481   3.398710   1.082984
     9  H    3.379521   3.856086   3.387944   2.161471   2.128184
    10  H    3.384784   2.144533   1.084621   2.143317   3.852083
    11  H    2.146294   1.082095   2.141137   3.398371   3.384250
    12  C    4.275472   3.757036   2.469965   1.472352   3.787195
    13  C    5.188956   4.913678   3.722860   2.498315   4.395498
    14  H    4.817781   4.007163   2.620085   2.169966   4.590850
    15  C    6.629398   6.256171   4.979777   3.882315   5.855395
    16  H    5.093332   5.113319   4.123165   2.751401   4.062141
    17  C    7.347824   6.763689   5.407504   4.553165   6.750536
    18  C    8.727323   8.135958   6.771044   5.928946   8.099778
    19  H    6.969034   6.249225   4.887316   4.243150   6.539017
    20  C    7.528855   7.316249   6.114788   4.918655   6.600709
    21  C    9.421612   8.969999   7.639181   6.649546   8.647614
    22  H    9.377134   8.677960   7.301991   6.602599   8.852156
    23  C    8.885231   8.605872   7.353603   6.219768   7.980376
    24  H    7.286686   7.250176   6.172323   4.897418   6.248718
    25  H    9.628811   9.441470   8.235503   7.054840   8.649032
    26  H   10.500789  10.029951   8.688941   7.724102   9.727353
    27  O    6.445589   6.864514   6.137810   4.752700   5.141027
    28  O    7.118903   7.397318   6.533008   5.146674   5.871321
    29  H    7.094566   7.191036   6.186297   4.827426   5.948283
                    6          7          8          9         10
     6  C    0.000000
     7  H    3.388054   0.000000
     8  H    2.138790   2.476123   0.000000
     9  H    1.082043   4.268175   2.440587   0.000000
    10  H    3.381952   4.279981   4.935051   4.288173   0.000000
    11  H    3.856318   2.478288   4.281877   4.938112   2.461894
    12  C    2.523333   5.357153   4.659503   2.766163   2.657081
    13  C    3.013990   6.253285   5.058339   2.743917   3.989630
    14  H    3.452869   5.878566   5.548070   3.828905   2.341643
    15  C    4.472453   7.699878   6.489520   4.114053   5.028304
    16  H    2.721044   6.101112   4.520356   2.090306   4.625596
    17  C    5.396321   8.427569   7.488095   5.203118   5.199252
    18  C    6.732509   9.807701   8.799838   6.456568   6.503841
    19  H    5.257307   8.035134   7.366413   5.254960   4.545757
    20  C    5.244357   8.568165   7.077588   4.663984   6.260408
    21  C    7.263365  10.495348   9.235606   6.816371   7.492444
    22  H    7.512541  10.451790   9.604993   7.322357   6.905875
    23  C    6.616775   9.933529   8.458057   6.036037   7.385029
    24  H    4.965018   8.277641   6.597397   4.257434   6.477693
    25  H    7.319706  10.652385   9.034459   6.646699   8.326604
    26  H    8.343023  11.575307  10.304483   7.878957   8.498473
    27  O    4.127715   7.282994   5.113273   3.086754   6.803515
    28  O    4.742211   8.012014   5.946848   3.764435   7.077323
    29  H    4.690467   8.058912   6.193255   3.835886   6.602929
                   11         12         13         14         15
    11  H    0.000000
    12  C    4.610759   0.000000
    13  C    5.842830   1.334966   0.000000
    14  H    4.666176   1.087426   2.093104   0.000000
    15  C    7.120325   2.512602   1.461275   2.770586   0.000000
    16  H    6.131531   2.104221   1.089436   3.065137   2.125022
    17  C    7.502695   3.096660   2.515938   2.876240   1.396772
    18  C    8.852549   4.466412   3.775382   4.197831   2.414837
    19  H    6.895694   2.865135   2.748512   2.373376   2.148137
    20  C    8.233283   3.691735   2.453691   4.078055   1.400063
    21  C    9.762963   5.219982   4.260292   5.154287   2.800586
    22  H    9.309789   5.155859   4.650892   4.709809   3.392503
    23  C    9.484572   4.904205   3.741692   5.103147   2.426577
    24  H    8.221386   3.905833   2.636273   4.506483   2.148843
    25  H   10.349380   5.813775   4.595664   6.089534   3.402617
    26  H   10.803675   6.286669   5.341667   6.167822   3.882062
    27  O    7.938503   4.401867   3.330153   5.373120   3.753495
    28  O    8.450966   4.533197   3.338442   5.382224   3.386165
    29  H    8.210571   3.972811   2.688116   4.707110   2.462278
                   16         17         18         19         20
    16  H    0.000000
    17  C    3.378545   0.000000
    18  C    4.506339   1.385707   0.000000
    19  H    3.735185   1.082085   2.142149   0.000000
    20  C    2.587539   2.404322   2.767988   3.387026   0.000000
    21  C    4.742530   2.412118   1.391850   3.390759   2.403409
    22  H    5.456930   2.138637   1.082658   2.460767   3.850601
    23  C    3.955300   2.782138   2.402654   3.863787   1.388665
    24  H    2.356345   3.387819   3.856022   4.283244   1.088632
    25  H    4.628256   3.863744   3.386644   4.945414   2.142407
    26  H    5.800144   3.390437   2.148690   4.280955   3.385763
    27  O    2.309852   5.052112   5.808292   5.662176   3.321006
    28  O    2.547764   4.487062   5.083169   5.142805   2.927362
    29  H    2.145149   3.548737   4.125636   4.276461   1.997911
                   21         22         23         24         25
    21  C    0.000000
    22  H    2.147013   0.000000
    23  C    1.387923   3.383819   0.000000
    24  H    3.390929   4.938673   2.151960   0.000000
    25  H    2.147622   4.282300   1.081646   2.472293   0.000000
    26  H    1.081490   2.473261   2.147034   4.287280   2.479437
    27  O    5.540365   6.837066   4.392330   2.533508   4.582995
    28  O    4.794380   6.058626   3.782963   2.482374   4.026041
    29  H    3.873483   5.123006   2.908062   1.789101   3.318678
                   26         27         28         29
    26  H    0.000000
    27  O    6.429453   0.000000
    28  O    5.626125   1.302124   0.000000
    29  H    4.761312   1.842986   0.982273   0.000000
 Stoichiometry    C14H13O2(2)
 Framework group  C1[X(C14H13O2)]
 Deg. of freedom    81
 Full point group                 C1      NOp   1
 Largest Abelian subgroup         C1      NOp   1
 Largest concise Abelian subgroup C1      NOp   1
                         Standard orientation:                         
 ---------------------------------------------------------------------
 Center     Atomic      Atomic             Coordinates (Angstroms)
 Number     Number       Type             X           Y           Z
 ---------------------------------------------------------------------
      1          6           0       -4.892451    0.089034    0.047766
      2          6           0       -4.502785   -1.240012    0.109416
      3          6           0       -3.154437   -1.570813    0.096441
      4          6           0       -2.170908   -0.584664    0.022496
      5          6           0       -3.923979    1.084294   -0.035132
      6          6           0       -2.579423    0.752840   -0.051695
      7          1           0       -5.941870    0.351303    0.056130
      8          1           0       -4.219849    2.124740   -0.087926
      9          1           0       -1.848734    1.547670   -0.123491
     10          1           0       -2.855262   -2.612584    0.136550
     11          1           0       -5.245860   -2.024918    0.161293
     12          6           0       -0.755044   -0.988538    0.028659
     13          6           0        0.290491   -0.159594    0.071573
     14          1           0       -0.581559   -2.062021    0.034343
     15          6           0        1.710103   -0.505784    0.084914
     16          1           0        0.132741    0.918149    0.092932
     17          6           0        2.220725   -1.674330   -0.484945
     18          6           0        3.583553   -1.924676   -0.470396
     19          1           0        1.548176   -2.372227   -0.966116
     20          6           0        2.604873    0.405101    0.659242
     21          6           0        4.464336   -1.012850    0.104096
     22          1           0        3.965380   -2.831158   -0.922774
     23          6           0        3.970821    0.155124    0.668551
     24          1           0        2.209785    1.299199    1.138422
     25          1           0        4.644136    0.867928    1.125187
     26          1           0        5.527129   -1.213062    0.106653
     27          8           0        0.788784    3.132716    0.119779
     28          8           0        1.651110    2.766339   -0.784482
     29          1           0        1.951405    1.863752   -0.539493
 ---------------------------------------------------------------------
 Rotational constants (GHZ):           0.9425989           0.2533229           0.2047537
 Standard basis: 6-311+G(2df,2p) (5D, 7F)
 There are   741 symmetry adapted cartesian basis functions of A   symmetry.
 There are   661 symmetry adapted basis functions of A   symmetry.
   661 basis functions,   975 primitive gaussians,   741 cartesian basis functions
    57 alpha electrons       56 beta electrons
       nuclear repulsion energy       955.7564517242 Hartrees.
 NAtoms=   29 NActive=   29 NUniq=   29 SFac= 1.00D+00 NAtFMM=   60 NAOKFM=F Big=F
 Integral buffers will be    131072 words long.
 Raffenetti 2 integral format.
 Two-electron integral symmetry is turned on.
 One-electron integrals computed using PRISM.
 NBasis=   661 RedAO= T EigKep=  1.15D-06  NBF=   661
 NBsUse=   659 1.00D-06 EigRej=  3.21D-07 NBFU=   659
 Initial guess from the checkpoint file:  "/scratch/dinius.ab/QMscratch/Gau-37429.chk"
 B after Tr=    -0.000000    0.000000   -0.000000
         Rot=    0.999807    0.007367    0.003281    0.017911 Ang=   2.25 deg.
 Initial guess <Sx>= 0.0000 <Sy>= 0.0000 <Sz>= 0.5000 <S**2>= 0.7550 S= 0.5025
 ExpMin= 4.38D-02 ExpMax= 8.59D+03 ExpMxC= 1.30D+03 IAcc=2 IRadAn=         4 AccDes= 0.00D+00
 Harris functional with IExCor= 1009 and IRadAn=       4 diagonalized for initial guess.
 HarFok:  IExCor= 1009 AccDes= 0.00D+00 IRadAn=         4 IDoV= 1 UseB2=F ITyADJ=14
 ICtDFT=  3500011 ScaDFX=  1.000000  1.000000  1.000000  1.000000
 FoFCou: FMM=F IPFlag=           0 FMFlag=      100000 FMFlg1=           0
         NFxFlg=           0 DoJE=T BraDBF=F KetDBF=T FulRan=T
         wScrn=  0.000000 ICntrl=       500 IOpCl=  0 I1Cent=   200000004 NGrid=           0
         NMat0=    1 NMatS0=      1 NMatT0=    0 NMatD0=    1 NMtDS0=    0 NMtDT0=    0
 Petite list used in FoFCou.
 Requested convergence on RMS density matrix=1.00D-08 within 128 cycles.
 Requested convergence on MAX density matrix=1.00D-06.
 Requested convergence on             energy=1.00D-06.
 No special actions if energy rises.
