 Entering Gaussian System, Link 0=g16
 Input=../rxn908.com
 Output=../rxn908.log
 Initial command:
 /shared/centos7/gaussian/g16/l1.exe "/scratch/dinius.ab/QMscratch/Gau-14619.inp" -scrdir="/scratch/dinius.ab/QMscratch/"
 Entering Link 1 = /shared/centos7/gaussian/g16/l1.exe PID=     14620.
  
 Copyright (c) 1988,1990,1992,1993,1995,1998,2003,2009,2016,
            Gaussian, Inc.  All Rights Reserved.
  
 This is part of the Gaussian(R) 16 program.  It is based on
 the Gaussian(R) 09 system (copyright 2009, Gaussian, Inc.),
 the Gaussian(R) 03 system (copyright 2003, Gaussian, Inc.),
 the Gaussian(R) 98 system (copyright 1998, Gaussian, Inc.),
 the Gaussian(R) 94 system (copyright 1995, Gaussian, Inc.),
 the Gaussian 92(TM) system (copyright 1992, Gaussian, Inc.),
 the Gaussian 90(TM) system (copyright 1990, Gaussian, Inc.),
 the Gaussian 88(TM) system (copyright 1988, Gaussian, Inc.),
 the Gaussian 86(TM) system (copyright 1986, Carnegie Mellon
 University), and the Gaussian 82(TM) system (copyright 1983,
 Carnegie Mellon University). Gaussian is a federally registered
 trademark of Gaussian, Inc.
  
 This software contains proprietary and confidential information,
 including trade secrets, belonging to Gaussian, Inc.
  
 This software is provided under written license and may be
 used, copied, transmitted, or stored only in accord with that
 written license.
  
 The following legend is applicable only to US Government
 contracts under FAR:
  
                    RESTRICTED RIGHTS LEGEND
  
 Use, reproduction and disclosure by the US Government is
 subject to restrictions as set forth in subparagraphs (a)
 and (c) of the Commercial Computer Software - Restricted
 Rights clause in FAR 52.227-19.
  
 Gaussian, Inc.
 340 Quinnipiac St., Bldg. 40, Wallingford CT 06492
  
  
 ---------------------------------------------------------------
 Warning -- This program may not be used in any manner that
 competes with the business of Gaussian, Inc. or will provide
 assistance to any competitor of Gaussian, Inc.  The licensee
 of this program is prohibited from giving any competitor of
 Gaussian, Inc. access to this program.  By using this program,
 the user acknowledges that Gaussian, Inc. is engaged in the
 business of creating and licensing software in the field of
 computational chemistry and represents and warrants to the
 licensee that it is not a competitor of Gaussian, Inc. and that
 it will not use this program in any manner prohibited above.
 ---------------------------------------------------------------
  

 Cite this work as:
 Gaussian 16, Revision A.03,
 M. J. Frisch, G. W. Trucks, H. B. Schlegel, G. E. Scuseria, 
 M. A. Robb, J. R. Cheeseman, G. Scalmani, V. Barone, 
 G. A. Petersson, H. Nakatsuji, X. Li, M. Caricato, A. V. Marenich, 
 J. Bloino, B. G. Janesko, R. Gomperts, B. Mennucci, H. P. Hratchian, 
 J. V. Ortiz, A. F. Izmaylov, J. L. Sonnenberg, D. Williams-Young, 
 F. Ding, F. Lipparini, F. Egidi, J. Goings, B. Peng, A. Petrone, 
 T. Henderson, D. Ranasinghe, V. G. Zakrzewski, J. Gao, N. Rega, 
 G. Zheng, W. Liang, M. Hada, M. Ehara, K. Toyota, R. Fukuda, 
 J. Hasegawa, M. Ishida, T. Nakajima, Y. Honda, O. Kitao, H. Nakai, 
 T. Vreven, K. Throssell, J. A. Montgomery, Jr., J. E. Peralta, 
 F. Ogliaro, M. J. Bearpark, J. J. Heyd, E. N. Brothers, K. N. Kudin, 
 V. N. Staroverov, T. A. Keith, R. Kobayashi, J. Normand, 
 K. Raghavachari, A. P. Rendell, J. C. Burant, S. S. Iyengar, 
 J. Tomasi, M. Cossi, J. M. Millam, M. Klene, C. Adamo, R. Cammi, 
 J. W. Ochterski, R. L. Martin, K. Morokuma, O. Farkas, 
 J. B. Foresman, and D. J. Fox, Gaussian, Inc., Wallingford CT, 2016.
 
 ******************************************
 Gaussian 16:  EM64L-G16RevA.03 25-Dec-2016
                15-Oct-2018 
 ******************************************
 ----------------------------------------
 #m062x/6-311+g(2df,2p) Opt=(TS,ModRedun)
 ----------------------------------------
 1/5=1,18=120,26=3,38=1/1,3;
 2/9=110,12=2,17=6,18=5,40=1/2;
 3/5=4,6=6,7=214,11=2,25=1,30=1,71=1,74=-55/1,2,3;
 4//1;
 5/5=2,38=5/2;
 6/7=2,8=2,9=2,10=2,28=1/1;
 7//1,2,3,16;
 1/5=1,18=20,26=3/3(2);
 2/9=110/2;
 99//99;
 2/9=110/2;
 3/5=4,6=6,7=214,11=2,25=1,30=1,71=1,74=-55/1,2,3;
 4/5=5,16=3,69=1/1;
 5/5=2,38=5/2;
 7//1,2,3,16;
 1/5=1,18=20,26=3/3(-5);
 2/9=110/2;
 6/7=2,8=2,9=2,10=2,19=2,28=1/1;
 99/9=1/99;
 -----
 Title
 -----
 Symbolic Z-matrix:
 Charge =  0 Multiplicity = 2
 C                    -8.41665   0.16013  -0.47186 
 C                    -7.38203   1.10578  -0.42267 
 C                    -8.12444  -1.19948  -0.28314 
 C                    -6.81104  -1.61458  -0.04711 
 H                    -8.91276  -1.94111  -0.31928 
 C                    -6.0602    0.69926  -0.18624 
 H                    -7.61008   2.15571  -0.56969 
 C                    -5.77185  -0.67431   0.00321 
 H                    -6.60825  -2.66941   0.09532 
 C                    -5.01976   1.64026  -0.13595 
 C                    -3.70675   1.22264   0.0998 
 H                    -5.22117   2.69532  -0.27851 
 C                    -3.4224   -0.13278   0.28648 
 H                    -2.90744   1.95147   0.1378 
 C                    -4.44908  -1.08026   0.23895 
 H                    -4.20985  -2.12678   0.38584 
 H                    -2.40365  -0.44986   0.46845 
 C                    -9.82287   0.61508  -0.72988 
 H                    -9.87511   1.17587  -1.81472 
 H                    -10.13869   1.32151   0.06712 
 H                    -10.53301  -0.2393   -0.74272 
 O                    -9.96507   1.85867  -2.66767 
 O                    -9.25932   1.30185  -3.6311 
 H                    -8.36776   1.73059  -3.57083 
 
 The following ModRedundant input section has been read:
 

 GradGradGradGradGradGradGradGradGradGradGradGradGradGradGradGradGradGrad
 Berny optimization.
 Initialization pass.
                           ----------------------------
                           !    Initial Parameters    !
                           ! (Angstroms and Degrees)  !
 --------------------------                            --------------------------
 ! Name  Definition              Value          Derivative Info.                !
 --------------------------------------------------------------------------------
 ! R1    R(1,2)                  1.4025         estimate D2E/DX2                !
 ! R2    R(1,3)                  1.4034         estimate D2E/DX2                !
 ! R3    R(1,18)                 1.5003         estimate D2E/DX2                !
 ! R4    R(2,6)                  1.403          estimate D2E/DX2                !
 ! R5    R(2,7)                  1.0844         estimate D2E/DX2                !
 ! R6    R(3,4)                  1.3975         estimate D2E/DX2                !
 ! R7    R(3,5)                  1.0829         estimate D2E/DX2                !
 ! R8    R(4,8)                  1.4023         estimate D2E/DX2                !
 ! R9    R(4,9)                  1.0835         estimate D2E/DX2                !
 ! R10   R(6,8)                  1.4162         estimate D2E/DX2                !
 ! R11   R(6,10)                 1.4038         estimate D2E/DX2                !
 ! R12   R(8,15)                 1.4036         estimate D2E/DX2                !
 ! R13   R(10,11)                1.3978         estimate D2E/DX2                !
 ! R14   R(10,12)                1.0835         estimate D2E/DX2                !
 ! R15   R(11,13)                1.3975         estimate D2E/DX2                !
 ! R16   R(11,14)                1.0824         estimate D2E/DX2                !
 ! R17   R(13,15)                1.3979         estimate D2E/DX2                !
 ! R18   R(13,17)                1.0824         estimate D2E/DX2                !
 ! R19   R(15,16)                1.0835         estimate D2E/DX2                !
 ! R20   R(18,19)                1.2223         estimate D2E/DX2                !
 ! R21   R(18,20)                1.1109         estimate D2E/DX2                !
 ! R22   R(18,21)                1.111          estimate D2E/DX2                !
 ! R23   R(19,22)                1.0963         estimate D2E/DX2                !
 ! R24   R(22,23)                1.3177         estimate D2E/DX2                !
 ! R25   R(23,24)                0.9911         estimate D2E/DX2                !
 ! A1    A(2,1,3)              119.6625         estimate D2E/DX2                !
 ! A2    A(2,1,18)             119.5368         estimate D2E/DX2                !
 ! A3    A(3,1,18)             120.8004         estimate D2E/DX2                !
 ! A4    A(1,2,6)              120.3678         estimate D2E/DX2                !
 ! A5    A(1,2,7)              119.532          estimate D2E/DX2                !
 ! A6    A(6,2,7)              120.1001         estimate D2E/DX2                !
 ! A7    A(1,3,4)              120.408          estimate D2E/DX2                !
 ! A8    A(1,3,5)              120.4909         estimate D2E/DX2                !
 ! A9    A(4,3,5)              119.1011         estimate D2E/DX2                !
 ! A10   A(3,4,8)              120.2214         estimate D2E/DX2                !
 ! A11   A(3,4,9)              119.1597         estimate D2E/DX2                !
 ! A12   A(8,4,9)              120.6189         estimate D2E/DX2                !
 ! A13   A(2,6,8)              119.6954         estimate D2E/DX2                !
 ! A14   A(2,6,10)             120.6711         estimate D2E/DX2                !
 ! A15   A(8,6,10)             119.6335         estimate D2E/DX2                !
 ! A16   A(4,8,6)              119.6448         estimate D2E/DX2                !
 ! A17   A(4,8,15)             120.6951         estimate D2E/DX2                !
 ! A18   A(6,8,15)             119.66           estimate D2E/DX2                !
 ! A19   A(6,10,11)            120.1304         estimate D2E/DX2                !
 ! A20   A(6,10,12)            120.6801         estimate D2E/DX2                !
 ! A21   A(11,10,12)           119.1895         estimate D2E/DX2                !
 ! A22   A(10,11,13)           120.2273         estimate D2E/DX2                !
 ! A23   A(10,11,14)           119.8946         estimate D2E/DX2                !
 ! A24   A(13,11,14)           119.8781         estimate D2E/DX2                !
 ! A25   A(11,13,15)           120.227          estimate D2E/DX2                !
 ! A26   A(11,13,17)           119.8757         estimate D2E/DX2                !
 ! A27   A(15,13,17)           119.8973         estimate D2E/DX2                !
 ! A28   A(8,15,13)            120.1218         estimate D2E/DX2                !
 ! A29   A(8,15,16)            120.6765         estimate D2E/DX2                !
 ! A30   A(13,15,16)           119.2017         estimate D2E/DX2                !
 ! A31   A(1,18,19)            109.3785         estimate D2E/DX2                !
 ! A32   A(1,18,20)            109.6284         estimate D2E/DX2                !
 ! A33   A(1,18,21)            111.5845         estimate D2E/DX2                !
 ! A34   A(19,18,20)           109.4421         estimate D2E/DX2                !
 ! A35   A(19,18,21)           108.3746         estimate D2E/DX2                !
 ! A36   A(20,18,21)           108.397          estimate D2E/DX2                !
 ! A37   A(19,22,23)           105.1721         estimate D2E/DX2                !
 ! A38   A(22,23,24)           104.7459         estimate D2E/DX2                !
 ! A39   L(18,19,22,7,-1)      175.564          estimate D2E/DX2                !
 ! A40   L(18,19,22,7,-2)      190.9657         estimate D2E/DX2                !
 ! D1    D(3,1,2,6)             -0.0023         estimate D2E/DX2                !
 ! D2    D(3,1,2,7)            179.9441         estimate D2E/DX2                !
 ! D3    D(18,1,2,6)          -179.8238         estimate D2E/DX2                !
 ! D4    D(18,1,2,7)             0.1225         estimate D2E/DX2                !
 ! D5    D(2,1,3,4)             -0.0021         estimate D2E/DX2                !
 ! D6    D(2,1,3,5)           -179.9439         estimate D2E/DX2                !
 ! D7    D(18,1,3,4)           179.8172         estimate D2E/DX2                !
 ! D8    D(18,1,3,5)            -0.1247         estimate D2E/DX2                !
 ! D9    D(2,1,18,19)           60.0097         estimate D2E/DX2                !
 ! D10   D(2,1,18,20)          -59.9941         estimate D2E/DX2                !
 ! D11   D(2,1,18,21)          179.9111         estimate D2E/DX2                !
 ! D12   D(3,1,18,19)         -119.8098         estimate D2E/DX2                !
 ! D13   D(3,1,18,20)          120.1865         estimate D2E/DX2                !
 ! D14   D(3,1,18,21)            0.0916         estimate D2E/DX2                !
 ! D15   D(1,2,6,8)              0.0118         estimate D2E/DX2                !
 ! D16   D(1,2,6,10)           179.9884         estimate D2E/DX2                !
 ! D17   D(7,2,6,8)           -179.9343         estimate D2E/DX2                !
 ! D18   D(7,2,6,10)             0.0423         estimate D2E/DX2                !
 ! D19   D(1,3,4,8)             -0.0032         estimate D2E/DX2                !
 ! D20   D(1,3,4,9)           -179.9702         estimate D2E/DX2                !
 ! D21   D(5,3,4,8)            179.9394         estimate D2E/DX2                !
 ! D22   D(5,3,4,9)             -0.0276         estimate D2E/DX2                !
 ! D23   D(3,4,8,6)              0.0127         estimate D2E/DX2                !
 ! D24   D(3,4,8,15)          -179.9686         estimate D2E/DX2                !
 ! D25   D(9,4,8,6)            179.9793         estimate D2E/DX2                !
 ! D26   D(9,4,8,15)            -0.0021         estimate D2E/DX2                !
 ! D27   D(2,6,8,4)             -0.017          estimate D2E/DX2                !
 ! D28   D(2,6,8,15)           179.9646         estimate D2E/DX2                !
 ! D29   D(10,6,8,4)          -179.9938         estimate D2E/DX2                !
 ! D30   D(10,6,8,15)           -0.0123         estimate D2E/DX2                !
 ! D31   D(2,6,10,11)         -179.9725         estimate D2E/DX2                !
 ! D32   D(2,6,10,12)            0.0257         estimate D2E/DX2                !
 ! D33   D(8,6,10,11)            0.0042         estimate D2E/DX2                !
 ! D34   D(8,6,10,12)         -179.9976         estimate D2E/DX2                !
 ! D35   D(4,8,15,13)          179.9907         estimate D2E/DX2                !
 ! D36   D(4,8,15,16)           -0.0012         estimate D2E/DX2                !
 ! D37   D(6,8,15,13)            0.0093         estimate D2E/DX2                !
 ! D38   D(6,8,15,16)         -179.9825         estimate D2E/DX2                !
 ! D39   D(6,10,11,13)           0.007          estimate D2E/DX2                !
 ! D40   D(6,10,11,14)         180.0            estimate D2E/DX2                !
 ! D41   D(12,10,11,13)       -179.9913         estimate D2E/DX2                !
 ! D42   D(12,10,11,14)          0.0018         estimate D2E/DX2                !
 ! D43   D(10,11,13,15)         -0.01           estimate D2E/DX2                !
 ! D44   D(10,11,13,17)        179.9879         estimate D2E/DX2                !
 ! D45   D(14,11,13,15)        179.997          estimate D2E/DX2                !
 ! D46   D(14,11,13,17)         -0.0051         estimate D2E/DX2                !
 ! D47   D(11,13,15,8)           0.0018         estimate D2E/DX2                !
 ! D48   D(11,13,15,16)        179.9937         estimate D2E/DX2                !
 ! D49   D(17,13,15,8)        -179.9962         estimate D2E/DX2                !
 ! D50   D(17,13,15,16)         -0.0042         estimate D2E/DX2                !
 ! D51   D(1,18,22,23)          43.3052         estimate D2E/DX2                !
 ! D52   D(20,18,22,23)        161.349          estimate D2E/DX2                !
 ! D53   D(21,18,22,23)        -82.0661         estimate D2E/DX2                !
 ! D54   D(19,22,23,24)        -95.0205         estimate D2E/DX2                !
 --------------------------------------------------------------------------------
 Trust Radius=3.00D-01 FncErr=1.00D-07 GrdErr=1.00D-06 EigMax=2.50D+02 EigMin=1.00D-04
 Number of steps in this run=    129 maximum allowed number of steps=    144.
 Search for a saddle point of order  1.
 GradGradGradGradGradGradGradGradGradGradGradGradGradGradGradGradGradGrad

                          Input orientation:                          
 ---------------------------------------------------------------------
 Center     Atomic      Atomic             Coordinates (Angstroms)
 Number     Number       Type             X           Y           Z
 ---------------------------------------------------------------------
      1          6           0       -8.416650    0.160130   -0.471860
      2          6           0       -7.382030    1.105780   -0.422670
      3          6           0       -8.124440   -1.199480   -0.283140
      4          6           0       -6.811040   -1.614580   -0.047110
      5          1           0       -8.912760   -1.941110   -0.319280
      6          6           0       -6.060200    0.699260   -0.186240
      7          1           0       -7.610080    2.155710   -0.569690
      8          6           0       -5.771850   -0.674310    0.003210
      9          1           0       -6.608250   -2.669410    0.095320
     10          6           0       -5.019760    1.640260   -0.135950
     11          6           0       -3.706750    1.222640    0.099800
     12          1           0       -5.221170    2.695320   -0.278510
     13          6           0       -3.422400   -0.132780    0.286480
     14          1           0       -2.907440    1.951470    0.137800
     15          6           0       -4.449080   -1.080260    0.238950
     16          1           0       -4.209850   -2.126780    0.385840
     17          1           0       -2.403650   -0.449860    0.468450
     18          6           0       -9.822870    0.615080   -0.729880
     19          1           0       -9.875110    1.175870   -1.814720
     20          1           0      -10.138690    1.321510    0.067120
     21          1           0      -10.533010   -0.239300   -0.742720
     22          8           0       -9.965070    1.858670   -2.667670
     23          8           0       -9.259320    1.301850   -3.631100
     24          1           0       -8.367760    1.730590   -3.570830
 ---------------------------------------------------------------------
                    Distance matrix (angstroms):
                    1          2          3          4          5
     1  C    0.000000
     2  C    1.402538   0.000000
     3  C    1.403403   2.425874   0.000000
     4  C    2.430636   2.804895   1.397511   0.000000
     5  H    2.164397   3.411358   1.082945   2.144277   0.000000
     6  C    2.434152   1.402994   2.806366   2.436591   3.889261
     7  H    2.154638   1.084424   3.406461   3.889298   4.306230
     8  C    2.813707   2.437781   2.427443   1.402339   3.402073
     9  H    3.405628   3.888330   2.145404   1.083548   2.452158
    10  C    3.720549   2.438893   4.210086   3.716256   5.292945
    11  C    4.861983   3.714070   5.052652   4.208089   6.106348
    12  H    4.083585   2.686398   4.857825   4.599616   5.926718
    13  C    5.059981   4.208990   4.855049   3.713475   5.812147
    14  H    5.825116   4.588167   6.109236   5.290463   7.171121
    15  C    4.217278   3.717352   3.714171   2.438480   4.580079
    16  H    4.864440   4.600637   4.078166   2.686258   4.759100
    17  H    6.116571   5.291349   5.818441   4.587751   6.724051
    18  C    1.500336   2.508558   2.525246   3.809026   2.744267
    19  H    2.227579   2.856250   3.324586   4.505506   3.588596
    20  H    2.145862   2.808132   3.245809   4.439249   3.506693
    21  H    2.170689   3.440981   2.633319   4.028440   2.387607
    22  O    3.178714   3.504135   4.292573   5.373891   4.589185
    23  O    3.463295   3.722457   4.330524   5.229209   4.648123
    24  H    3.474529   3.357523   4.410603   5.101974   4.934672
                    6          7          8          9         10
     6  C    0.000000
     7  H    2.161113   0.000000
     8  C    1.416239   3.422911   0.000000
     9  H    3.424554   4.972694   2.165288   0.000000
    10  C    1.403754   2.676486   2.437671   4.598917   0.000000
    11  C    2.427853   4.068762   2.805777   4.854562   1.397848
    12  H    2.167196   2.466345   3.425934   5.553744   1.083532
    13  C    2.806019   4.848389   2.427635   4.076846   2.423567
    14  H    3.407775   4.759945   3.888146   5.920332   2.152600
    15  C    2.437865   4.595359   1.403599   2.684780   2.804898
    16  H    3.426014   5.551065   2.167007   2.476120   3.888291
    17  H    3.888374   5.913852   3.407579   4.769097   3.402636
    18  C    3.802672   2.701044   4.314013   4.669327   4.947081
    19  H    4.175242   2.764154   4.854357   5.395072   5.158328
    20  H    4.133457   2.737752   4.801737   5.328437   5.132863
    21  H    4.603976   3.782794   4.838831   4.691640   5.856351
    22  O    4.769668   3.167922   5.579667   6.277409   5.559982
    23  O    4.739678   3.580684   5.410718   6.056838   5.504949
    24  H    4.224207   3.124364   5.029518   5.991371   4.797464
                   11         12         13         14         15
    11  C    0.000000
    12  H    2.146013   0.000000
    13  C    1.397450   3.398961   0.000000
    14  H    1.082374   2.465760   2.152066   0.000000
    15  C    2.423585   3.888302   1.397873   3.402686   0.000000
    16  H    3.399050   4.971597   2.146156   4.288347   1.083518
    17  H    2.152029   4.288184   1.082361   2.475787   2.152640
    18  C    6.201969   5.070185   6.523672   7.096617   5.717554
    19  H    6.458811   5.131065   6.911228   7.277521   6.224908
    20  H    6.432783   5.117501   6.875437   7.258982   6.178162
    21  H    7.031709   6.086307   7.185497   7.982738   6.219734
    22  O    6.872408   5.377049   7.449792   7.595355   6.892887
    23  O    6.690061   5.430311   7.174624   7.414377   6.617412
    24  H    5.954540   4.655223   6.542750   6.604379   6.145840
                   16         17         18         19         20
    16  H    0.000000
    17  H    2.466018   0.000000
    18  C    6.345756   7.590449   0.000000
    19  H    6.917018   7.979886   1.222331   0.000000
    20  H    6.866107   7.945418   1.110853   1.905783   0.000000
    21  H    6.694668   8.221786   1.111049   1.893336   1.802070
    22  O    7.637427   8.505271   2.306896   1.096281   2.792447
    23  O    7.306741   8.177714   3.034192   1.922057   3.801383
    24  H    6.915400   7.526005   3.381228   2.379861   4.066721
                   21         22         23         24
    21  H    0.000000
    22  O    2.903354   0.000000
    23  O    3.512858   1.317698   0.000000
    24  H    4.070256   1.839430   0.991125   0.000000
 Stoichiometry    C11H11O2(2)
 Framework group  C1[X(C11H11O2)]
 Deg. of freedom    66
 Full point group                 C1      NOp   1
 Largest Abelian subgroup         C1      NOp   1
 Largest concise Abelian subgroup C1      NOp   1
                         Standard orientation:                         
 ---------------------------------------------------------------------
 Center     Atomic      Atomic             Coordinates (Angstroms)
 Number     Number       Type             X           Y           Z
 ---------------------------------------------------------------------
      1          6           0       -1.202318    0.757118   -0.537511
      2          6           0       -0.426815   -0.398441   -0.711836
      3          6           0       -0.614896    1.913441   -0.001420
      4          6           0        0.735424    1.919039    0.358640
      5          1           0       -1.201376    2.812815    0.139783
      6          6           0        0.929662   -0.403023   -0.353590
      7          1           0       -0.883106   -1.291037   -1.125414
      8          6           0        1.516471    0.767046    0.187081
      9          1           0        1.168090    2.822764    0.771143
     10          6           0        1.711687   -1.556083   -0.525099
     11          6           0        3.062007   -1.548252   -0.163776
     12          1           0        1.280166   -2.460517   -0.937204
     13          6           0        3.640785   -0.393675    0.369922
     14          1           0        3.661452   -2.439472   -0.297665
     15          6           0        2.873413    0.761408    0.545920
     16          1           0        3.339070    1.647230    0.961243
     17          1           0        4.686831   -0.394000    0.647937
     18          6           0       -2.652116    0.740067   -0.923264
     19          1           0       -3.234857   -0.115118   -0.272753
     20          1           0       -2.747528    0.510086   -2.005853
     21          1           0       -3.138364    1.719946   -0.728769
     22          8           0       -3.781359   -0.982410    0.115799
     23          8           0       -3.429514   -1.072571    1.382450
     24          1           0       -2.683214   -1.724715    1.391167
 ---------------------------------------------------------------------
 Rotational constants (GHZ):           1.5532000           0.4445649           0.3842776
 Standard basis: 6-311+G(2df,2p) (5D, 7F)
 There are   606 symmetry adapted cartesian basis functions of A   symmetry.
 There are   541 symmetry adapted basis functions of A   symmetry.
   541 basis functions,   797 primitive gaussians,   606 cartesian basis functions
    47 alpha electrons       46 beta electrons
       nuclear repulsion energy       726.4738221433 Hartrees.
 NAtoms=   24 NActive=   24 NUniq=   24 SFac= 1.00D+00 NAtFMM=   60 NAOKFM=F Big=F
 Integral buffers will be    131072 words long.
 Raffenetti 2 integral format.
 Two-electron integral symmetry is turned on.
 One-electron integrals computed using PRISM.
 NBasis=   541 RedAO= T EigKep=  1.53D-06  NBF=   541
 NBsUse=   538 1.00D-06 EigRej=  9.61D-07 NBFU=   538
 ExpMin= 4.38D-02 ExpMax= 8.59D+03 ExpMxC= 1.30D+03 IAcc=3 IRadAn=         5 AccDes= 0.00D+00
 Harris functional with IExCor= 1009 and IRadAn=       5 diagonalized for initial guess.
 HarFok:  IExCor= 1009 AccDes= 0.00D+00 IRadAn=         5 IDoV= 1 UseB2=F ITyADJ=14
 ICtDFT=  3500011 ScaDFX=  1.000000  1.000000  1.000000  1.000000
 FoFCou: FMM=F IPFlag=           0 FMFlag=      100000 FMFlg1=           0
         NFxFlg=           0 DoJE=T BraDBF=F KetDBF=T FulRan=T
         wScrn=  0.000000 ICntrl=       500 IOpCl=  0 I1Cent=   200000004 NGrid=           0
         NMat0=    1 NMatS0=      1 NMatT0=    0 NMatD0=    1 NMtDS0=    0 NMtDT0=    0
 Petite list used in FoFCou.
 Initial guess <Sx>= 0.0000 <Sy>= 0.0000 <Sz>= 0.5000 <S**2>= 0.7500 S= 0.5000
 Requested convergence on RMS density matrix=1.00D-08 within 128 cycles.
 Requested convergence on MAX density matrix=1.00D-06.
 Requested convergence on             energy=1.00D-06.
 No special actions if energy rises.
 Restarting incremental Fock formation.
 SCF Done:  E(UM062X) =  -576.002651005     A.U. after   22 cycles
            NFock= 22  Conv=0.18D-08     -V/T= 2.0036
 <Sx>= 0.0000 <Sy>= 0.0000 <Sz>= 0.5000 <S**2>= 0.7620 S= 0.5060
 <L.S>= 0.000000000000E+00
 Annihilation of the first spin contaminant:
 S**2 before annihilation     0.7620,   after     0.7501

 **********************************************************************

            Population analysis using the SCF density.

 **********************************************************************

 Orbital symmetries:
 Alpha Orbitals:
       Occupied  (A) (A) (A) (A) (A) (A) (A) (A) (A) (A) (A) (A)
                 (A) (A) (A) (A) (A) (A) (A) (A) (A) (A) (A) (A)
                 (A) (A) (A) (A) (A) (A) (A) (A) (A) (A) (A) (A)
                 (A) (A) (A) (A) (A) (A) (A) (A) (A) (A) (A)
       Virtual   (A) (A) (A) (A) (A) (A) (A) (A) (A) (A) (A) (A)
                 (A) (A) (A) (A) (A) (A) (A) (A) (A) (A) (A) (A)
                 (A) (A) (A) (A) (A) (A) (A) (A) (A) (A) (A) (A)
                 (A) (A) (A) (A) (A) (A) (A) (A) (A) (A) (A) (A)
                 (A) (A) (A) (A) (A) (A) (A) (A) (A) (A) (A) (A)
                 (A) (A) (A) (A) (A) (A) (A) (A) (A) (A) (A) (A)
                 (A) (A) (A) (A) (A) (A) (A) (A) (A) (A) (A) (A)
                 (A) (A) (A) (A) (A) (A) (A) (A) (A) (A) (A) (A)
                 (A) (A) (A) (A) (A) (A) (A) (A) (A) (A) (A) (A)
                 (A) (A) (A) (A) (A) (A) (A) (A) (A) (A) (A) (A)
                 (A) (A) (A) (A) (A) (A) (A) (A) (A) (A) (A) (A)
                 (A) (A) (A) (A) (A) (A) (A) (A) (A) (A) (A) (A)
                 (A) (A) (A) (A) (A) (A) (A) (A) (A) (A) (A) (A)
                 (A) (A) (A) (A) (A) (A) (A) (A) (A) (A) (A) (A)
                 (A) (A) (A) (A) (A) (A) (A) (A) (A) (A) (A) (A)
                 (A) (A) (A) (A) (A) (A) (A) (A) (A) (A) (A) (A)
                 (A) (A) (A) (A) (A) (A) (A) (A) (A) (A) (A) (A)
                 (A) (A) (A) (A) (A) (A) (A) (A) (A) (A) (A) (A)
                 (A) (A) (A) (A) (A) (A) (A) (A) (A) (A) (A) (A)
                 (A) (A) (A) (A) (A) (A) (A) (A) (A) (A) (A) (A)
                 (A) (A) (A) (A) (A) (A) (A) (A) (A) (A) (A) (A)
                 (A) (A) (A) (A) (A) (A) (A) (A) (A) (A) (A) (A)
                 (A) (A) (A) (A) (A) (A) (A) (A) (A) (A) (A) (A)
                 (A) (A) (A) (A) (A) (A) (A) (A) (A) (A) (A) (A)
                 (A) (A) (A) (A) (A) (A) (A) (A) (A) (A) (A) (A)
                 (A) (A) (A) (A) (A) (A) (A) (A) (A) (A) (A) (A)
                 (A) (A) (A) (A) (A) (A) (A) (A) (A) (A) (A) (A)
                 (A) (A) (A) (A) (A) (A) (A) (A) (A) (A) (A) (A)
                 (A) (A) (A) (A) (A) (A) (A) (A) (A) (A) (A) (A)
                 (A) (A) (A) (A) (A) (A) (A) (A) (A) (A) (A) (A)
                 (A) (A) (A) (A) (A) (A) (A) (A) (A) (A) (A) (A)
                 (A) (A) (A) (A) (A) (A) (A) (A) (A) (A) (A) (A)
                 (A) (A) (A) (A) (A) (A) (A) (A) (A) (A) (A) (A)
                 (A) (A) (A) (A) (A) (A) (A) (A) (A) (A) (A) (A)
                 (A) (A) (A) (A) (A) (A) (A) (A) (A) (A) (A) (A)
                 (A) (A) (A) (A) (A) (A) (A) (A) (A) (A) (A) (A)
                 (A) (A) (A) (A) (A) (A) (A) (A) (A) (A) (A) (A)
                 (A) (A) (A) (A) (A) (A) (A) (A) (A) (A) (A) (A)
                 (A) (A) (A) (A) (A) (A) (A) (A) (A) (A) (A) (A)
                 (A) (A) (A) (A) (A) (A) (A) (A) (A) (A) (A) (A)
                 (A) (A) (A) (A) (A) (A) (A) (A) (A) (A) (A)
 Beta  Orbitals:
       Occupied  (A) (A) (A) (A) (A) (A) (A) (A) (A) (A) (A) (A)
                 (A) (A) (A) (A) (A) (A) (A) (A) (A) (A) (A) (A)
                 (A) (A) (A) (A) (A) (A) (A) (A) (A) (A) (A) (A)
                 (A) (A) (A) (A) (A) (A) (A) (A) (A) (A)
       Virtual   (A) (A) (A) (A) (A) (A) (A) (A) (A) (A) (A) (A)
                 (A) (A) (A) (A) (A) (A) (A) (A) (A) (A) (A) (A)
                 (A) (A) (A) (A) (A) (A) (A) (A) (A) (A) (A) (A)
                 (A) (A) (A) (A) (A) (A) (A) (A) (A) (A) (A) (A)
                 (A) (A) (A) (A) (A) (A) (A) (A) (A) (A) (A) (A)
                 (A) (A) (A) (A) (A) (A) (A) (A) (A) (A) (A) (A)
                 (A) (A) (A) (A) (A) (A) (A) (A) (A) (A) (A) (A)
                 (A) (A) (A) (A) (A) (A) (A) (A) (A) (A) (A) (A)
                 (A) (A) (A) (A) (A) (A) (A) (A) (A) (A) (A) (A)
                 (A) (A) (A) (A) (A) (A) (A) (A) (A) (A) (A) (A)
                 (A) (A) (A) (A) (A) (A) (A) (A) (A) (A) (A) (A)
                 (A) (A) (A) (A) (A) (A) (A) (A) (A) (A) (A) (A)
                 (A) (A) (A) (A) (A) (A) (A) (A) (A) (A) (A) (A)
                 (A) (A) (A) (A) (A) (A) (A) (A) (A) (A) (A) (A)
                 (A) (A) (A) (A) (A) (A) (A) (A) (A) (A) (A) (A)
                 (A) (A) (A) (A) (A) (A) (A) (A) (A) (A) (A) (A)
                 (A) (A) (A) (A) (A) (A) (A) (A) (A) (A) (A) (A)
                 (A) (A) (A) (A) (A) (A) (A) (A) (A) (A) (A) (A)
                 (A) (A) (A) (A) (A) (A) (A) (A) (A) (A) (A) (A)
                 (A) (A) (A) (A) (A) (A) (A) (A) (A) (A) (A) (A)
                 (A) (A) (A) (A) (A) (A) (A) (A) (A) (A) (A) (A)
                 (A) (A) (A) (A) (A) (A) (A) (A) (A) (A) (A) (A)
                 (A) (A) (A) (A) (A) (A) (A) (A) (A) (A) (A) (A)
                 (A) (A) (A) (A) (A) (A) (A) (A) (A) (A) (A) (A)
                 (A) (A) (A) (A) (A) (A) (A) (A) (A) (A) (A) (A)
                 (A) (A) (A) (A) (A) (A) (A) (A) (A) (A) (A) (A)
                 (A) (A) (A) (A) (A) (A) (A) (A) (A) (A) (A) (A)
                 (A) (A) (A) (A) (A) (A) (A) (A) (A) (A) (A) (A)
                 (A) (A) (A) (A) (A) (A) (A) (A) (A) (A) (A) (A)
                 (A) (A) (A) (A) (A) (A) (A) (A) (A) (A) (A) (A)
                 (A) (A) (A) (A) (A) (A) (A) (A) (A) (A) (A) (A)
                 (A) (A) (A) (A) (A) (A) (A) (A) (A) (A) (A) (A)
                 (A) (A) (A) (A) (A) (A) (A) (A) (A) (A) (A) (A)
                 (A) (A) (A) (A) (A) (A) (A) (A) (A) (A) (A) (A)
                 (A) (A) (A) (A) (A) (A) (A) (A) (A) (A) (A) (A)
                 (A) (A) (A) (A) (A) (A) (A) (A) (A) (A) (A) (A)
                 (A) (A) (A) (A) (A) (A) (A) (A) (A) (A) (A) (A)
                 (A) (A) (A) (A) (A) (A) (A) (A) (A) (A) (A) (A)
                 (A) (A) (A) (A) (A) (A) (A) (A) (A) (A) (A) (A)
                 (A) (A) (A) (A) (A) (A) (A) (A) (A) (A) (A) (A)
                 (A) (A) (A) (A) (A) (A) (A) (A) (A) (A) (A) (A)
 The electronic state is 2-A.
 Alpha  occ. eigenvalues --  -19.70428 -19.68912 -10.56398 -10.55856 -10.55741
 Alpha  occ. eigenvalues --  -10.55402 -10.55333 -10.55306 -10.55285 -10.55224
 Alpha  occ. eigenvalues --  -10.55171 -10.55090 -10.54946  -1.32240  -0.99897
 Alpha  occ. eigenvalues --   -0.99323  -0.93776  -0.88687  -0.86619  -0.82514
 Alpha  occ. eigenvalues --   -0.78513  -0.72024  -0.69286  -0.69106  -0.65445
 Alpha  occ. eigenvalues --   -0.61144  -0.59973  -0.58965  -0.56201  -0.55061
 Alpha  occ. eigenvalues --   -0.53050  -0.52162  -0.49744  -0.49179  -0.48166
 Alpha  occ. eigenvalues --   -0.46626  -0.45889  -0.44753  -0.42430  -0.40257
 Alpha  occ. eigenvalues --   -0.39986  -0.39755  -0.37842  -0.35822  -0.32802
 Alpha  occ. eigenvalues --   -0.28910  -0.26174
 Alpha virt. eigenvalues --   -0.03088   0.00608   0.00789   0.01357   0.01809
 Alpha virt. eigenvalues --    0.02067   0.03373   0.03769   0.04551   0.05533
 Alpha virt. eigenvalues --    0.05625   0.06044   0.06546   0.07276   0.07944
 Alpha virt. eigenvalues --    0.08969   0.09033   0.09905   0.10728   0.11227
 Alpha virt. eigenvalues --    0.12165   0.12805   0.13007   0.13360   0.13625
 Alpha virt. eigenvalues --    0.13970   0.14720   0.15553   0.16436   0.16667
 Alpha virt. eigenvalues --    0.17445   0.17661   0.18279   0.18808   0.18914
 Alpha virt. eigenvalues --    0.18992   0.19269   0.19603   0.20522   0.21204
 Alpha virt. eigenvalues --    0.21401   0.21688   0.22069   0.22538   0.22835
 Alpha virt. eigenvalues --    0.23446   0.23910   0.24158   0.24784   0.25147
 Alpha virt. eigenvalues --    0.25938   0.26096   0.26662   0.27363   0.27626
 Alpha virt. eigenvalues --    0.27866   0.28377   0.29351   0.30113   0.31223
 Alpha virt. eigenvalues --    0.31628   0.32040   0.32383   0.32629   0.33394
 Alpha virt. eigenvalues --    0.34683   0.35366   0.35886   0.37583   0.37986
 Alpha virt. eigenvalues --    0.40406   0.41060   0.42193   0.42521   0.45860
 Alpha virt. eigenvalues --    0.46548   0.48088   0.49565   0.50398   0.51226
 Alpha virt. eigenvalues --    0.52178   0.52697   0.53236   0.54414   0.55177
 Alpha virt. eigenvalues --    0.55547   0.55934   0.56013   0.56409   0.57395
 Alpha virt. eigenvalues --    0.58194   0.58797   0.59188   0.59519   0.60264
 Alpha virt. eigenvalues --    0.61148   0.62129   0.63526   0.64540   0.64946
 Alpha virt. eigenvalues --    0.65756   0.66046   0.66379   0.66683   0.67642
 Alpha virt. eigenvalues --    0.67696   0.68396   0.68523   0.69178   0.69305
 Alpha virt. eigenvalues --    0.69867   0.70839   0.71987   0.72322   0.73216
 Alpha virt. eigenvalues --    0.73404   0.73733   0.74937   0.75310   0.76261
 Alpha virt. eigenvalues --    0.77217   0.77646   0.78592   0.79406   0.79996
 Alpha virt. eigenvalues --    0.80440   0.82213   0.82964   0.84290   0.85369
 Alpha virt. eigenvalues --    0.86439   0.86741   0.87836   0.88965   0.89794
 Alpha virt. eigenvalues --    0.90144   0.90411   0.92669   0.92884   0.94061
 Alpha virt. eigenvalues --    0.96860   0.97757   0.98128   0.99084   1.00583
 Alpha virt. eigenvalues --    1.01481   1.03438   1.04263   1.04961   1.07094
 Alpha virt. eigenvalues --    1.07272   1.08686   1.08977   1.10342   1.11006
 Alpha virt. eigenvalues --    1.11485   1.13306   1.13959   1.14658   1.15862
 Alpha virt. eigenvalues --    1.16085   1.16814   1.17123   1.18927   1.19634
 Alpha virt. eigenvalues --    1.20056   1.21025   1.21639   1.22908   1.24355
 Alpha virt. eigenvalues --    1.24851   1.26488   1.27235   1.29312   1.30283
 Alpha virt. eigenvalues --    1.30743   1.31609   1.32159   1.32584   1.33977
 Alpha virt. eigenvalues --    1.34503   1.35528   1.35939   1.36679   1.37645
 Alpha virt. eigenvalues --    1.38896   1.39168   1.39875   1.40439   1.42330
 Alpha virt. eigenvalues --    1.42460   1.43534   1.46102   1.46697   1.47953
 Alpha virt. eigenvalues --    1.48739   1.49517   1.49618   1.51109   1.54158
 Alpha virt. eigenvalues --    1.54452   1.56750   1.57259   1.57720   1.61308
 Alpha virt. eigenvalues --    1.62872   1.65744   1.66881   1.69288   1.70146
 Alpha virt. eigenvalues --    1.73105   1.73284   1.75054   1.75550   1.76651
 Alpha virt. eigenvalues --    1.77484   1.78922   1.81262   1.81779   1.85299
 Alpha virt. eigenvalues --    1.89200   1.90444   1.91938   1.93809   2.00392
 Alpha virt. eigenvalues --    2.02765   2.03959   2.05074   2.07837   2.10811
 Alpha virt. eigenvalues --    2.11912   2.13525   2.20174   2.25689   2.29801
 Alpha virt. eigenvalues --    2.33793   2.37479   2.40191   2.47436   2.49725
 Alpha virt. eigenvalues --    2.52264   2.53199   2.54883   2.58100   2.62886
 Alpha virt. eigenvalues --    2.63147   2.65033   2.66086   2.66661   2.68918
 Alpha virt. eigenvalues --    2.70358   2.71498   2.73965   2.74411   2.75342
 Alpha virt. eigenvalues --    2.76196   2.76406   2.76976   2.77797   2.79577
 Alpha virt. eigenvalues --    2.80490   2.80619   2.82678   2.83044   2.83489
 Alpha virt. eigenvalues --    2.84315   2.85346   2.85913   2.86054   2.87086
 Alpha virt. eigenvalues --    2.87765   2.87901   2.88179   2.89463   2.90532
 Alpha virt. eigenvalues --    2.90662   2.91229   2.93201   2.94660   2.96405
 Alpha virt. eigenvalues --    2.98023   2.98813   2.99990   3.01613   3.02145
 Alpha virt. eigenvalues --    3.04772   3.06202   3.08539   3.09378   3.10171
 Alpha virt. eigenvalues --    3.11475   3.12109   3.13549   3.13993   3.14431
 Alpha virt. eigenvalues --    3.15991   3.17676   3.18110   3.18812   3.19592
 Alpha virt. eigenvalues --    3.20295   3.21225   3.21904   3.22702   3.23459
 Alpha virt. eigenvalues --    3.24277   3.25116   3.26324   3.26818   3.27412
 Alpha virt. eigenvalues --    3.28829   3.29670   3.31516   3.33021   3.33937
 Alpha virt. eigenvalues --    3.34552   3.35612   3.38509   3.39757   3.41041
 Alpha virt. eigenvalues --    3.41568   3.42412   3.43926   3.45471   3.45947
 Alpha virt. eigenvalues --    3.47288   3.47820   3.49268   3.49909   3.50500
 Alpha virt. eigenvalues --    3.52412   3.53471   3.54097   3.54749   3.55323
 Alpha virt. eigenvalues --    3.58023   3.58532   3.60340   3.63498   3.64201
 Alpha virt. eigenvalues --    3.64923   3.66863   3.67438   3.68882   3.69954
 Alpha virt. eigenvalues --    3.71026   3.73096   3.73666   3.75250   3.76127
 Alpha virt. eigenvalues --    3.76777   3.77447   3.77815   3.78031   3.80505
 Alpha virt. eigenvalues --    3.81276   3.82396   3.84191   3.85243   3.87845
 Alpha virt. eigenvalues --    3.88421   3.90825   3.91763   3.93415   3.95029
 Alpha virt. eigenvalues --    3.96793   3.98279   3.99043   4.00957   4.01887
 Alpha virt. eigenvalues --    4.04543   4.06915   4.08013   4.08302   4.09699
 Alpha virt. eigenvalues --    4.10675   4.13235   4.14273   4.14795   4.15678
 Alpha virt. eigenvalues --    4.17407   4.19453   4.21192   4.23461   4.25158
 Alpha virt. eigenvalues --    4.27048   4.27246   4.28381   4.29986   4.30452
 Alpha virt. eigenvalues --    4.31183   4.34391   4.35449   4.36337   4.37036
 Alpha virt. eigenvalues --    4.38684   4.39971   4.40216   4.40639   4.42631
 Alpha virt. eigenvalues --    4.43975   4.45693   4.47556   4.49333   4.50147
 Alpha virt. eigenvalues --    4.51194   4.51667   4.52035   4.54957   4.56446
 Alpha virt. eigenvalues --    4.56942   4.60250   4.60806   4.62091   4.65062
 Alpha virt. eigenvalues --    4.66159   4.68718   4.70781   4.74399   4.75213
 Alpha virt. eigenvalues --    4.75626   4.76612   4.79808   4.83654   4.89792
 Alpha virt. eigenvalues --    4.90580   4.92908   4.95598   4.96416   4.97171
 Alpha virt. eigenvalues --    5.04025   5.10134   5.12186   5.13741   5.15214
 Alpha virt. eigenvalues --    5.16769   5.17981   5.23090   5.24659   5.26394
 Alpha virt. eigenvalues --    5.29059   5.30094   5.33276   5.34197   5.40986
 Alpha virt. eigenvalues --    5.43218   5.47909   5.51358   5.53895   5.56287
 Alpha virt. eigenvalues --    5.58104   5.59201   5.65987   5.70159   5.72544
 Alpha virt. eigenvalues --    5.73589   5.75371   5.82659   5.87652   6.00372
 Alpha virt. eigenvalues --    6.13763   6.32741   6.35521   6.40789   6.52315
 Alpha virt. eigenvalues --    6.83198   6.85140   6.89206   6.97144   6.99344
 Alpha virt. eigenvalues --    7.02270   7.05352   7.28072   7.31049   7.51636
 Alpha virt. eigenvalues --    7.63802   7.92162   7.93828  23.91434  24.21587
 Alpha virt. eigenvalues --   24.41915  24.57756  24.60952  24.62990  24.66289
 Alpha virt. eigenvalues --   24.75815  24.83534  25.05995  25.22712  49.99843
 Alpha virt. eigenvalues --   50.07398
  Beta  occ. eigenvalues --  -19.70147 -19.67925 -10.56442 -10.55872 -10.55721
  Beta  occ. eigenvalues --  -10.55418 -10.55298 -10.55290 -10.55269 -10.55189
  Beta  occ. eigenvalues --  -10.55175 -10.55076 -10.54434  -1.30273  -0.99439
  Beta  occ. eigenvalues --   -0.97049  -0.93570  -0.88561  -0.86244  -0.82288
  Beta  occ. eigenvalues --   -0.77391  -0.71800  -0.69222  -0.68507  -0.63685
  Beta  occ. eigenvalues --   -0.59903  -0.58898  -0.58201  -0.55637  -0.53059
  Beta  occ. eigenvalues --   -0.52974  -0.51944  -0.49524  -0.48973  -0.47809
  Beta  occ. eigenvalues --   -0.46349  -0.45421  -0.44035  -0.40815  -0.40018
  Beta  occ. eigenvalues --   -0.39636  -0.37431  -0.36381  -0.35347  -0.30584
  Beta  occ. eigenvalues --   -0.26891
  Beta virt. eigenvalues --   -0.08751  -0.02618   0.00671   0.01154   0.01393
  Beta virt. eigenvalues --    0.01836   0.02135   0.03438   0.03782   0.04649
  Beta virt. eigenvalues --    0.05584   0.05675   0.06144   0.06591   0.07276
  Beta virt. eigenvalues --    0.07973   0.09024   0.09131   0.09961   0.10761
  Beta virt. eigenvalues --    0.11284   0.12252   0.12849   0.13165   0.13402
  Beta virt. eigenvalues --    0.13637   0.14024   0.14730   0.15473   0.16522
  Beta virt. eigenvalues --    0.16722   0.17462   0.17684   0.18341   0.18843
  Beta virt. eigenvalues --    0.18967   0.19076   0.19322   0.19641   0.20536
  Beta virt. eigenvalues --    0.21236   0.21481   0.21738   0.22318   0.22699
  Beta virt. eigenvalues --    0.22849   0.23639   0.24153   0.24181   0.24827
  Beta virt. eigenvalues --    0.25264   0.26073   0.26154   0.26824   0.27362
  Beta virt. eigenvalues --    0.27637   0.27914   0.28430   0.29452   0.30199
  Beta virt. eigenvalues --    0.31236   0.31883   0.32047   0.32584   0.32745
  Beta virt. eigenvalues --    0.33553   0.34733   0.35548   0.35954   0.37702
  Beta virt. eigenvalues --    0.38377   0.40506   0.41257   0.42363   0.43334
  Beta virt. eigenvalues --    0.46029   0.47088   0.48235   0.49709   0.50498
  Beta virt. eigenvalues --    0.51391   0.52361   0.52990   0.53352   0.54477
  Beta virt. eigenvalues --    0.55274   0.55654   0.55996   0.56149   0.56533
  Beta virt. eigenvalues --    0.57489   0.58344   0.58980   0.59331   0.59725
  Beta virt. eigenvalues --    0.60359   0.61286   0.62360   0.64023   0.64698
  Beta virt. eigenvalues --    0.65102   0.65975   0.66230   0.66427   0.67039
  Beta virt. eigenvalues --    0.67706   0.67758   0.68499   0.68828   0.69246
  Beta virt. eigenvalues --    0.69427   0.70147   0.71106   0.72020   0.72392
  Beta virt. eigenvalues --    0.73254   0.73522   0.73885   0.74965   0.75312
  Beta virt. eigenvalues --    0.76531   0.77267   0.77670   0.78642   0.79591
  Beta virt. eigenvalues --    0.80060   0.80547   0.82303   0.83036   0.84379
  Beta virt. eigenvalues --    0.85468   0.86542   0.86865   0.87942   0.89363
  Beta virt. eigenvalues --    0.89898   0.90229   0.90504   0.92799   0.92964
  Beta virt. eigenvalues --    0.94140   0.97052   0.97864   0.98202   0.99349
  Beta virt. eigenvalues --    1.00674   1.01683   1.03526   1.04324   1.05069
  Beta virt. eigenvalues --    1.07101   1.07583   1.08776   1.09034   1.10469
  Beta virt. eigenvalues --    1.10952   1.11561   1.13494   1.14289   1.14852
  Beta virt. eigenvalues --    1.15953   1.16142   1.16915   1.17348   1.19152
  Beta virt. eigenvalues --    1.19791   1.20286   1.21193   1.21928   1.23087
  Beta virt. eigenvalues --    1.24525   1.24899   1.26718   1.27454   1.29398
  Beta virt. eigenvalues --    1.30371   1.30986   1.31681   1.32276   1.32633
  Beta virt. eigenvalues --    1.34027   1.34602   1.35645   1.36014   1.36841
  Beta virt. eigenvalues --    1.37814   1.39016   1.39211   1.39954   1.40571
  Beta virt. eigenvalues --    1.42466   1.42657   1.43901   1.46151   1.46989
  Beta virt. eigenvalues --    1.48241   1.48863   1.49680   1.49812   1.51175
  Beta virt. eigenvalues --    1.54709   1.54820   1.57105   1.57813   1.57951
  Beta virt. eigenvalues --    1.61915   1.63138   1.65973   1.67118   1.69363
  Beta virt. eigenvalues --    1.70276   1.73215   1.73367   1.75116   1.75651
  Beta virt. eigenvalues --    1.76689   1.77629   1.79019   1.81441   1.82088
  Beta virt. eigenvalues --    1.85457   1.89347   1.90540   1.92211   1.93948
  Beta virt. eigenvalues --    2.00545   2.02887   2.04098   2.06525   2.08352
  Beta virt. eigenvalues --    2.11181   2.12793   2.14046   2.20368   2.25865
  Beta virt. eigenvalues --    2.29865   2.34447   2.37600   2.40189   2.48300
  Beta virt. eigenvalues --    2.49520   2.52343   2.53434   2.55124   2.58402
  Beta virt. eigenvalues --    2.63060   2.63342   2.65209   2.66328   2.66932
  Beta virt. eigenvalues --    2.68932   2.70597   2.71682   2.74137   2.74539
  Beta virt. eigenvalues --    2.75315   2.76333   2.76556   2.77284   2.78104
  Beta virt. eigenvalues --    2.79884   2.80584   2.80705   2.82772   2.83244
  Beta virt. eigenvalues --    2.83568   2.84360   2.85450   2.86112   2.86320
  Beta virt. eigenvalues --    2.87131   2.87917   2.88082   2.88567   2.89392
  Beta virt. eigenvalues --    2.90618   2.90934   2.91386   2.93104   2.94656
  Beta virt. eigenvalues --    2.96811   2.98276   2.99068   3.00130   3.01975
  Beta virt. eigenvalues --    3.02592   3.05035   3.07174   3.08849   3.09904
  Beta virt. eigenvalues --    3.10367   3.11773   3.12360   3.13758   3.14453
  Beta virt. eigenvalues --    3.14771   3.16147   3.18012   3.18265   3.19063
  Beta virt. eigenvalues --    3.19834   3.20470   3.21797   3.22431   3.22966
  Beta virt. eigenvalues --    3.23916   3.24823   3.25355   3.26942   3.27201
  Beta virt. eigenvalues --    3.27925   3.29416   3.30075   3.31672   3.33334
  Beta virt. eigenvalues --    3.34185   3.34812   3.36127   3.39313   3.40127
  Beta virt. eigenvalues --    3.41320   3.41822   3.42735   3.44242   3.45706
  Beta virt. eigenvalues --    3.46464   3.47672   3.48280   3.49704   3.50382
  Beta virt. eigenvalues --    3.50676   3.52686   3.54195   3.54434   3.55253
  Beta virt. eigenvalues --    3.56592   3.58911   3.59848   3.60812   3.63664
  Beta virt. eigenvalues --    3.65000   3.65358   3.67160   3.68007   3.69530
  Beta virt. eigenvalues --    3.70597   3.71636   3.73280   3.73923   3.75482
  Beta virt. eigenvalues --    3.76272   3.77003   3.77793   3.78117   3.78468
  Beta virt. eigenvalues --    3.80785   3.81791   3.82806   3.84509   3.86598
  Beta virt. eigenvalues --    3.88555   3.88851   3.91314   3.92164   3.94195
  Beta virt. eigenvalues --    3.95212   3.97549   3.98639   3.99243   4.01692
  Beta virt. eigenvalues --    4.02229   4.04979   4.07421   4.08172   4.08567
  Beta virt. eigenvalues --    4.09891   4.10899   4.13660   4.14369   4.15038
  Beta virt. eigenvalues --    4.15778   4.18198   4.19909   4.21991   4.23884
  Beta virt. eigenvalues --    4.25657   4.27387   4.27806   4.28944   4.30382
  Beta virt. eigenvalues --    4.30742   4.31433   4.34688   4.35698   4.36616
  Beta virt. eigenvalues --    4.37231   4.39166   4.40294   4.40549   4.40902
  Beta virt. eigenvalues --    4.43041   4.44221   4.46005   4.47850   4.49578
  Beta virt. eigenvalues --    4.50383   4.51500   4.51979   4.52254   4.55382
  Beta virt. eigenvalues --    4.56833   4.57190   4.60438   4.61089   4.62741
  Beta virt. eigenvalues --    4.65448   4.66793   4.68945   4.71204   4.74669
  Beta virt. eigenvalues --    4.75269   4.75912   4.76875   4.80321   4.84140
  Beta virt. eigenvalues --    4.90571   4.91170   4.93194   4.96033   4.96686
  Beta virt. eigenvalues --    4.97794   5.04212   5.10263   5.13125   5.14031
  Beta virt. eigenvalues --    5.15474   5.17401   5.18209   5.23438   5.24953
  Beta virt. eigenvalues --    5.26849   5.29668   5.30490   5.34283   5.35074
  Beta virt. eigenvalues --    5.41593   5.43478   5.48692   5.52225   5.54625
  Beta virt. eigenvalues --    5.57164   5.58766   5.60276   5.66916   5.70378
  Beta virt. eigenvalues --    5.72658   5.73862   5.75662   5.82871   5.87907
  Beta virt. eigenvalues --    6.00633   6.13898   6.33134   6.36486   6.40953
  Beta virt. eigenvalues --    6.52459   6.84136   6.86291   6.89092   6.97773
  Beta virt. eigenvalues --    7.00198   7.03980   7.09575   7.28578   7.34244
  Beta virt. eigenvalues --    7.51618   7.65371   7.92697   7.95253  23.91456
  Beta virt. eigenvalues --   24.21617  24.42771  24.57780  24.60995  24.62995
  Beta virt. eigenvalues --   24.66377  24.75876  24.83587  25.06041  25.22762
  Beta virt. eigenvalues --   49.99579  50.06834
          Condensed to atoms (all electrons):
               1          2          3          4          5          6
     1  C    8.941939   0.333322  -0.275670  -0.219219  -0.008624  -1.752557
     2  C    0.333322   7.622709  -1.556432   0.202482  -0.021119   0.155502
     3  C   -0.275670  -1.556432   9.614857  -0.009407   0.358409  -0.716679
     4  C   -0.219219   0.202482  -0.009407   6.025072   0.012459   0.151129
     5  H   -0.008624  -0.021119   0.358409   0.012459   0.472960  -0.047383
     6  C   -1.752557   0.155502  -0.716679   0.151129  -0.047383  12.434399
     7  H    0.034547   0.411640   0.008845  -0.004625  -0.000135  -0.094626
     8  C    0.337171  -0.725334  -1.437216  -0.566495   0.061005  -2.269186
     9  H    0.007400  -0.015570   0.039795   0.399717  -0.006289  -0.062625
    10  C   -0.173767  -0.075786   0.481842  -0.041973  -0.001805  -0.980218
    11  C   -0.456332  -0.646474   0.105024   0.063699  -0.001750   0.325642
    12  H    0.020780   0.079449   0.004424   0.004983  -0.000003  -0.099713
    13  C    0.022398  -0.004569  -0.372986  -0.347087   0.001664   0.179427
    14  H    0.003519   0.003626  -0.001871   0.000519   0.000000   0.072626
    15  C   -0.038434   0.229329   0.948210   0.103593   0.011095  -1.170031
    16  H   -0.003994   0.003231   0.017539   0.029960  -0.000012  -0.055734
    17  H    0.001670   0.003368  -0.000403  -0.000621  -0.000001  -0.001922
    18  C   -0.803610  -0.036773  -0.456100   0.277615   0.006347  -0.303835
    19  H   -0.042687   0.016847  -0.017610  -0.006048   0.000212   0.008285
    20  H   -0.012140  -0.029877  -0.007303   0.001860   0.000083  -0.020072
    21  H   -0.219696   0.074951  -0.005231   0.040343   0.001082   0.007540
    22  O   -0.039495   0.046715  -0.023791   0.006256  -0.000238   0.031436
    23  O   -0.003811   0.031188  -0.031723   0.000661  -0.000021   0.021441
    24  H    0.045017  -0.010342   0.008146   0.001310   0.000018  -0.021853
               7          8          9         10         11         12
     1  C    0.034547   0.337171   0.007400  -0.173767  -0.456332   0.020780
     2  C    0.411640  -0.725334  -0.015570  -0.075786  -0.646474   0.079449
     3  C    0.008845  -1.437216   0.039795   0.481842   0.105024   0.004424
     4  C   -0.004625  -0.566495   0.399717  -0.041973   0.063699   0.004983
     5  H   -0.000135   0.061005  -0.006289  -0.001805  -0.001750  -0.000003
     6  C   -0.094626  -2.269186  -0.062625  -0.980218   0.325642  -0.099713
     7  H    0.448586  -0.047101   0.000036   0.044286   0.011272   0.002828
     8  C   -0.047101  15.779680  -0.056651  -0.902949   0.087056  -0.083936
     9  H    0.000036  -0.056651   0.476275   0.004383   0.001103   0.000013
    10  C    0.044286  -0.902949   0.004383   6.662712   0.167243   0.434010
    11  C    0.011272   0.087056   0.001103   0.167243   6.313966   0.013777
    12  H    0.002828  -0.083936   0.000013   0.434010   0.013777   0.477072
    13  C   -0.000321   0.273914   0.008409  -0.532131   0.415007  -0.009811
    14  H   -0.000010  -0.010082  -0.000002  -0.050482   0.341122  -0.006228
    15  C    0.008969  -4.787355   0.042392   1.224617  -0.366616   0.007905
    16  H    0.000012  -0.078930   0.002414  -0.004900   0.000557   0.000034
    17  H   -0.000003   0.054580  -0.000009   0.009386   0.007199  -0.000088
    18  C   -0.002038  -0.001718   0.001158  -0.158752  -0.030018  -0.001796
    19  H    0.000082   0.013509   0.000013  -0.001021  -0.000890  -0.000001
    20  H   -0.002082   0.007129   0.000011  -0.004996  -0.000449  -0.000005
    21  H    0.000164  -0.000834  -0.000014   0.001935   0.000505   0.000000
    22  O    0.000886  -0.014003  -0.000003   0.002866   0.002234   0.000024
    23  O   -0.001374  -0.009296  -0.000003  -0.000353   0.001361  -0.000032
    24  H   -0.000682   0.003002  -0.000000  -0.005169  -0.002086   0.000023
              13         14         15         16         17         18
     1  C    0.022398   0.003519  -0.038434  -0.003994   0.001670  -0.803610
     2  C   -0.004569   0.003626   0.229329   0.003231   0.003368  -0.036773
     3  C   -0.372986  -0.001871   0.948210   0.017539  -0.000403  -0.456100
     4  C   -0.347087   0.000519   0.103593   0.029960  -0.000621   0.277615
     5  H    0.001664   0.000000   0.011095  -0.000012  -0.000001   0.006347
     6  C    0.179427   0.072626  -1.170031  -0.055734  -0.001922  -0.303835
     7  H   -0.000321  -0.000010   0.008969   0.000012  -0.000003  -0.002038
     8  C    0.273914  -0.010082  -4.787355  -0.078930   0.054580  -0.001718
     9  H    0.008409  -0.000002   0.042392   0.002414  -0.000009   0.001158
    10  C   -0.532131  -0.050482   1.224617  -0.004900   0.009386  -0.158752
    11  C    0.415007   0.341122  -0.366616   0.000557   0.007199  -0.030018
    12  H   -0.009811  -0.006228   0.007905   0.000034  -0.000088  -0.001796
    13  C    6.230642   0.022578   0.091790   0.021475   0.361188  -0.010222
    14  H    0.022578   0.482853  -0.002937  -0.000101  -0.006482   0.000241
    15  C    0.091790  -0.002937   9.611046   0.439139  -0.054790  -0.084552
    16  H    0.021475  -0.000101   0.439139   0.477886  -0.006312  -0.000558
    17  H    0.361188  -0.006482  -0.054790  -0.006312   0.481888   0.000120
    18  C   -0.010222   0.000241  -0.084552  -0.000558   0.000120   7.220942
    19  H    0.000419   0.000000   0.000798  -0.000000   0.000000   0.238195
    20  H    0.000129   0.000000  -0.000403  -0.000000  -0.000000   0.424428
    21  H    0.000164   0.000000  -0.002906   0.000000  -0.000000   0.459980
    22  O    0.000416   0.000000  -0.003593  -0.000000  -0.000000  -0.065887
    23  O   -0.000271  -0.000000  -0.005177  -0.000000  -0.000000   0.050280
    24  H   -0.000310  -0.000000   0.002233   0.000000   0.000000  -0.020956
              19         20         21         22         23         24
     1  C   -0.042687  -0.012140  -0.219696  -0.039495  -0.003811   0.045017
     2  C    0.016847  -0.029877   0.074951   0.046715   0.031188  -0.010342
     3  C   -0.017610  -0.007303  -0.005231  -0.023791  -0.031723   0.008146
     4  C   -0.006048   0.001860   0.040343   0.006256   0.000661   0.001310
     5  H    0.000212   0.000083   0.001082  -0.000238  -0.000021   0.000018
     6  C    0.008285  -0.020072   0.007540   0.031436   0.021441  -0.021853
     7  H    0.000082  -0.002082   0.000164   0.000886  -0.001374  -0.000682
     8  C    0.013509   0.007129  -0.000834  -0.014003  -0.009296   0.003002
     9  H    0.000013   0.000011  -0.000014  -0.000003  -0.000003  -0.000000
    10  C   -0.001021  -0.004996   0.001935   0.002866  -0.000353  -0.005169
    11  C   -0.000890  -0.000449   0.000505   0.002234   0.001361  -0.002086
    12  H   -0.000001  -0.000005   0.000000   0.000024  -0.000032   0.000023
    13  C    0.000419   0.000129   0.000164   0.000416  -0.000271  -0.000310
    14  H    0.000000   0.000000   0.000000   0.000000  -0.000000  -0.000000
    15  C    0.000798  -0.000403  -0.002906  -0.003593  -0.005177   0.002233
    16  H   -0.000000  -0.000000   0.000000  -0.000000  -0.000000   0.000000
    17  H    0.000000  -0.000000  -0.000000  -0.000000  -0.000000   0.000000
    18  C    0.238195   0.424428   0.459980  -0.065887   0.050280  -0.020956
    19  H    0.430700  -0.025449  -0.014410  -0.006113  -0.050789   0.007181
    20  H   -0.025449   0.499467  -0.021079   0.003004   0.001589   0.000110
    21  H   -0.014410  -0.021079   0.514410   0.006006   0.001392  -0.000232
    22  O   -0.006113   0.003004   0.006006   8.278383   0.151887  -0.072332
    23  O   -0.050789   0.001589   0.001392   0.151887   7.738439   0.244802
    24  H    0.007181   0.000110  -0.000232  -0.072332   0.244802   0.568420
          Atomic-Atomic Spin Densities.
               1          2          3          4          5          6
     1  C    0.082962  -0.044783   0.024480  -0.050973  -0.000121  -0.057588
     2  C   -0.044783   0.209537  -0.029452  -0.005646  -0.000360  -0.022262
     3  C    0.024480  -0.029452   0.160519  -0.018831   0.001124  -0.028203
     4  C   -0.050973  -0.005646  -0.018831   0.008793  -0.000149  -0.024573
     5  H   -0.000121  -0.000360   0.001124  -0.000149  -0.003094  -0.000753
     6  C   -0.057588  -0.022262  -0.028203  -0.024573  -0.000753   0.052759
     7  H   -0.002902   0.000310  -0.000552  -0.000159   0.000002   0.004466
     8  C    0.004971  -0.023271  -0.040521   0.015054  -0.000461   0.066550
     9  H    0.000434   0.000059   0.002005  -0.000331   0.000029   0.001433
    10  C    0.007202   0.016985   0.004431   0.002877   0.000030  -0.024474
    11  C   -0.003722  -0.012022  -0.002560  -0.003574   0.000008   0.007867
    12  H    0.000396   0.000890   0.000013   0.000038   0.000000  -0.000284
    13  C   -0.003008  -0.000890  -0.005482   0.002079  -0.000013   0.020477
    14  H   -0.000042  -0.000205   0.000011   0.000003  -0.000000  -0.000389
    15  C   -0.010627   0.024864   0.020098   0.027086  -0.000075  -0.049578
    16  H    0.000033   0.000053  -0.000456  -0.000549   0.000000   0.000851
    17  H    0.000017   0.000031   0.000021   0.000127   0.000000  -0.000154
    18  C   -0.095667   0.032315  -0.038363   0.005019   0.000996   0.011471
    19  H   -0.036970   0.022809  -0.008674   0.000330  -0.000046   0.005491
    20  H    0.016711  -0.009248   0.006127   0.002153  -0.000050  -0.001460
    21  H   -0.008250  -0.000284   0.004681   0.005534   0.000055  -0.000274
    22  O    0.046517  -0.027924   0.021360   0.005490  -0.000032  -0.010936
    23  O   -0.021286   0.007071  -0.009421  -0.004939   0.000021   0.006706
    24  H    0.000433  -0.000442   0.000729   0.000135  -0.000002  -0.000531
               7          8          9         10         11         12
     1  C   -0.002902   0.004971   0.000434   0.007202  -0.003722   0.000396
     2  C    0.000310  -0.023271   0.000059   0.016985  -0.012022   0.000890
     3  C   -0.000552  -0.040521   0.002005   0.004431  -0.002560   0.000013
     4  C   -0.000159   0.015054  -0.000331   0.002877  -0.003574   0.000038
     5  H    0.000002  -0.000461   0.000029   0.000030   0.000008   0.000000
     6  C    0.004466   0.066550   0.001433  -0.024474   0.007867  -0.000284
     7  H   -0.006562  -0.001584   0.000000   0.001071   0.001042   0.000036
     8  C   -0.001584   0.144278  -0.000969  -0.022987   0.007387  -0.000809
     9  H    0.000000  -0.000969   0.002384   0.000023   0.000135   0.000000
    10  C    0.001071  -0.022987   0.000023   0.067727  -0.005790   0.000083
    11  C    0.001042   0.007387   0.000135  -0.005790  -0.019084  -0.000603
    12  H    0.000036  -0.000809   0.000000   0.000083  -0.000603  -0.001843
    13  C    0.000014  -0.006248  -0.000718  -0.021720   0.013347  -0.000103
    14  H   -0.000001   0.000304  -0.000000  -0.000287   0.000246  -0.000011
    15  C   -0.000649  -0.110947  -0.002160   0.020432  -0.004740   0.000210
    16  H   -0.000000  -0.000607  -0.000004  -0.000043  -0.000023  -0.000000
    17  H    0.000000   0.000469   0.000000  -0.000004   0.000300   0.000001
    18  C   -0.001160   0.017425  -0.000037  -0.001894  -0.000431   0.000023
    19  H   -0.000529  -0.003746  -0.000001  -0.000812   0.000288   0.000001
    20  H    0.000001   0.001169  -0.000001   0.000257  -0.000041  -0.000000
    21  H   -0.000021   0.000817  -0.000004  -0.000032  -0.000010  -0.000000
    22  O    0.000053   0.002286  -0.000004  -0.000190  -0.000371  -0.000005
    23  O    0.000245   0.000312   0.000005   0.000650   0.000158   0.000000
    24  H   -0.000002   0.000098  -0.000000  -0.000021  -0.000061   0.000001
              13         14         15         16         17         18
     1  C   -0.003008  -0.000042  -0.010627   0.000033   0.000017  -0.095667
     2  C   -0.000890  -0.000205   0.024864   0.000053   0.000031   0.032315
     3  C   -0.005482   0.000011   0.020098  -0.000456   0.000021  -0.038363
     4  C    0.002079   0.000003   0.027086  -0.000549   0.000127   0.005019
     5  H   -0.000013  -0.000000  -0.000075   0.000000   0.000000   0.000996
     6  C    0.020477  -0.000389  -0.049578   0.000851  -0.000154   0.011471
     7  H    0.000014  -0.000001  -0.000649  -0.000000   0.000000  -0.001160
     8  C   -0.006248   0.000304  -0.110947  -0.000607   0.000469   0.017425
     9  H   -0.000718  -0.000000  -0.002160  -0.000004   0.000000  -0.000037
    10  C   -0.021720  -0.000287   0.020432  -0.000043  -0.000004  -0.001894
    11  C    0.013347   0.000246  -0.004740  -0.000023   0.000300  -0.000431
    12  H   -0.000103  -0.000011   0.000210  -0.000000   0.000001   0.000023
    13  C    0.044510   0.000045  -0.002878   0.000485  -0.000584   0.000640
    14  H    0.000045   0.001344   0.000130  -0.000001  -0.000002  -0.000003
    15  C   -0.002878   0.000130   0.058549   0.000150  -0.000165  -0.003040
    16  H    0.000485  -0.000001   0.000150   0.001378   0.000007  -0.000004
    17  H   -0.000584  -0.000002  -0.000165   0.000007  -0.002816   0.000002
    18  C    0.000640  -0.000003  -0.003040  -0.000004   0.000002   0.654698
    19  H   -0.000086  -0.000000  -0.001593   0.000000   0.000000   0.101720
    20  H    0.000019  -0.000000   0.000509  -0.000000  -0.000000  -0.024730
    21  H    0.000020  -0.000000   0.000257  -0.000000   0.000000  -0.009329
    22  O    0.000030  -0.000000   0.001924  -0.000000  -0.000000  -0.164112
    23  O   -0.000021   0.000000  -0.001043   0.000000  -0.000000   0.047933
    24  H    0.000008   0.000000   0.000161  -0.000000   0.000000  -0.001278
              19         20         21         22         23         24
     1  C   -0.036970   0.016711  -0.008250   0.046517  -0.021286   0.000433
     2  C    0.022809  -0.009248  -0.000284  -0.027924   0.007071  -0.000442
     3  C   -0.008674   0.006127   0.004681   0.021360  -0.009421   0.000729
     4  C    0.000330   0.002153   0.005534   0.005490  -0.004939   0.000135
     5  H   -0.000046  -0.000050   0.000055  -0.000032   0.000021  -0.000002
     6  C    0.005491  -0.001460  -0.000274  -0.010936   0.006706  -0.000531
     7  H   -0.000529   0.000001  -0.000021   0.000053   0.000245  -0.000002
     8  C   -0.003746   0.001169   0.000817   0.002286   0.000312   0.000098
     9  H   -0.000001  -0.000001  -0.000004  -0.000004   0.000005  -0.000000
    10  C   -0.000812   0.000257  -0.000032  -0.000190   0.000650  -0.000021
    11  C    0.000288  -0.000041  -0.000010  -0.000371   0.000158  -0.000061
    12  H    0.000001  -0.000000  -0.000000  -0.000005   0.000000   0.000001
    13  C   -0.000086   0.000019   0.000020   0.000030  -0.000021   0.000008
    14  H   -0.000000  -0.000000  -0.000000  -0.000000   0.000000   0.000000
    15  C   -0.001593   0.000509   0.000257   0.001924  -0.001043   0.000161
    16  H    0.000000  -0.000000  -0.000000  -0.000000   0.000000  -0.000000
    17  H    0.000000  -0.000000   0.000000  -0.000000  -0.000000   0.000000
    18  C    0.101720  -0.024730  -0.009329  -0.164112   0.047933  -0.001278
    19  H   -0.071506  -0.000417  -0.000061  -0.027957   0.026749   0.000091
    20  H   -0.000417  -0.022401   0.004691   0.006641  -0.001791   0.000025
    21  H   -0.000061   0.004691  -0.016983   0.005378  -0.001798   0.000055
    22  O   -0.027957   0.006641   0.005378   0.593603  -0.098264   0.004380
    23  O    0.026749  -0.001791  -0.001798  -0.098264   0.158241  -0.001547
    24  H    0.000091   0.000025   0.000055   0.004380  -0.001547  -0.006226
 Mulliken charges and spin densities:
               1          2
     1  C    0.302272  -0.151784
     2  C   -0.092082   0.138133
     3  C   -0.674668   0.063085
     4  C   -0.126182  -0.035006
     5  H    0.162044  -0.002889
     6  C    0.209007  -0.043390
     7  H    0.180845  -0.006880
     8  C    0.374041   0.048968
     9  H    0.158046   0.002278
    10  C   -0.098978   0.043514
    11  C   -0.352153  -0.022255
    12  H    0.156293  -0.001964
    13  C   -0.351911   0.039921
    14  H    0.151111   0.001144
    15  C   -0.204321  -0.033124
    16  H    0.158295   0.001271
    17  H    0.151232  -0.002751
    18  C   -0.702493   0.532192
    19  H    0.448777   0.005083
    20  H    0.186045  -0.021838
    21  H    0.155928  -0.015560
    22  O   -0.304658   0.357868
    23  O   -0.140189   0.107979
    24  H    0.253697  -0.003995
 Sum of Mulliken charges =  -0.00000   1.00000
 Mulliken charges and spin densities with hydrogens summed into heavy atoms:
               1          2
     1  C    0.302272  -0.151784
     2  C    0.088763   0.131253
     3  C   -0.512624   0.060196
     4  C    0.031865  -0.032728
     6  C    0.209007  -0.043390
     8  C    0.374041   0.048968
    10  C    0.057314   0.041550
    11  C   -0.201042  -0.021112
    13  C   -0.200679   0.037170
    15  C   -0.046027  -0.031853
    18  C   -0.360520   0.494795
    22  O    0.144119   0.362950
    23  O    0.113509   0.103984
 Electronic spatial extent (au):  <R**2>=           2892.8547
 Charge=             -0.0000 electrons
 Dipole moment (field-independent basis, Debye):
    X=              2.3484    Y=              0.0173    Z=             -0.2340  Tot=              2.3601
 Quadrupole moment (field-independent basis, Debye-Ang):
   XX=            -83.4446   YY=            -67.8232   ZZ=            -79.7838
   XY=             -3.3509   XZ=              5.1817   YZ=              1.4999
 Traceless Quadrupole moment (field-independent basis, Debye-Ang):
   XX=             -6.4274   YY=              9.1940   ZZ=             -2.7666
   XY=             -3.3509   XZ=              5.1817   YZ=              1.4999
 Octapole moment (field-independent basis, Debye-Ang**2):
  XXX=             55.9323  YYY=            -10.8260  ZZZ=              4.3739  XYY=             -9.0325
  XXY=             11.2584  XXZ=             -2.0954  XZZ=            -16.3096  YZZ=             -6.6684
  YYZ=              8.6924  XYZ=              9.2440
 Hexadecapole moment (field-independent basis, Debye-Ang**3):
 XXXX=          -2908.5017 YYYY=           -714.6807 ZZZZ=           -285.0418 XXXY=            -75.6146
 XXXZ=             73.6941 YYYX=             27.0499 YYYZ=             10.5494 ZZZX=             -9.4425
 ZZZY=            -11.3109 XXYY=           -552.5743 XXZZ=           -539.2413 YYZZ=           -175.4617
 XXYZ=              7.4583 YYXZ=            -15.8726 ZZXY=             21.9198
 N-N= 7.264738221433D+02 E-N=-2.795498670475D+03  KE= 5.739225940436D+02
                          Isotropic Fermi Contact Couplings
        Atom                 a.u.       MegaHertz       Gauss      10(-4) cm-1
     1  C(13)             -0.01579     -17.75239      -6.33449      -5.92156
     2  C(13)              0.01502      16.88060       6.02342       5.63076
     3  C(13)              0.01421      15.97394       5.69990       5.32833
     4  C(13)             -0.00421      -4.73775      -1.69055      -1.58034
     5  H(1)              -0.00056      -2.51543      -0.89757      -0.83906
     6  C(13)             -0.00731      -8.21720      -2.93210      -2.74096
     7  H(1)              -0.00159      -7.12167      -2.54119      -2.37553
     8  C(13)              0.00580       6.52013       2.32655       2.17488
     9  H(1)               0.00058       2.57122       0.91747       0.85767
    10  C(13)              0.00447       5.02240       1.79212       1.67529
    11  C(13)             -0.00382      -4.29238      -1.53163      -1.43178
    12  H(1)              -0.00048      -2.13663      -0.76240      -0.71270
    13  C(13)              0.00485       5.45330       1.94587       1.81902
    14  H(1)               0.00021       0.95838       0.34197       0.31968
    15  C(13)             -0.00450      -5.05848      -1.80499      -1.68733
    16  H(1)               0.00028       1.25948       0.44941       0.42012
    17  H(1)              -0.00053      -2.34996      -0.83852      -0.78386
    18  C(13)              0.21571     242.50297      86.53109      80.89029
    19  H(1)              -0.03037    -135.74779     -48.43819     -45.28059
    20  H(1)              -0.00441     -19.73059      -7.04036      -6.58142
    21  H(1)              -0.00238     -10.62812      -3.79238      -3.54516
    22  O(17)              0.12494     -75.74112     -27.02632     -25.26452
    23  O(17)              0.01597      -9.68216      -3.45484      -3.22962
    24  H(1)              -0.00232     -10.37891      -3.70345      -3.46203
 --------------------------------------------------------
       Center         ----  Spin Dipole Couplings  ----
                      3XX-RR        3YY-RR        3ZZ-RR
 --------------------------------------------------------
     1   Atom        0.040343      0.011605     -0.051948
     2   Atom       -0.031100     -0.045896      0.076996
     3   Atom       -0.020183     -0.020758      0.040941
     4   Atom        0.016572      0.009821     -0.026393
     5   Atom       -0.001545      0.003995     -0.002450
     6   Atom        0.011963      0.004547     -0.016511
     7   Atom        0.000569      0.002376     -0.002945
     8   Atom       -0.012826     -0.014449      0.027275
     9   Atom        0.001964     -0.000767     -0.001197
    10   Atom       -0.011774     -0.012143      0.023917
    11   Atom        0.008080      0.005196     -0.013277
    12   Atom       -0.000104      0.001223     -0.001118
    13   Atom       -0.013018     -0.013658      0.026677
    14   Atom        0.001083     -0.000524     -0.000559
    15   Atom        0.010326      0.006857     -0.017183
    16   Atom        0.001386     -0.000646     -0.000739
    17   Atom        0.002972     -0.002592     -0.000380
    18   Atom       -0.099633      0.147962     -0.048328
    19   Atom       -0.051764      0.102990     -0.051226
    20   Atom       -0.027580     -0.013255      0.040835
    21   Atom       -0.011910      0.033679     -0.021769
    22   Atom        0.167181      0.771106     -0.938287
    23   Atom        0.048722      0.173557     -0.222279
    24   Atom        0.007302      0.002728     -0.010030
 --------------------------------------------------------
                        XY            XZ            YZ
 --------------------------------------------------------
     1   Atom        0.004435      0.013441      0.018875
     2   Atom        0.009911     -0.045479     -0.036117
     3   Atom        0.004497      0.002001     -0.005403
     4   Atom       -0.002810      0.014268      0.013881
     5   Atom        0.001179      0.000035      0.003320
     6   Atom       -0.002655      0.006350      0.007571
     7   Atom        0.000461     -0.001900      0.004299
     8   Atom        0.005022     -0.011991     -0.015496
     9   Atom       -0.000292      0.000664     -0.000180
    10   Atom        0.002848     -0.010472     -0.013639
    11   Atom       -0.001676      0.005980      0.006914
    12   Atom        0.000031     -0.000163      0.001043
    13   Atom        0.004051     -0.011182     -0.015569
    14   Atom        0.000371      0.000467      0.000213
    15   Atom       -0.002550      0.007685      0.008854
    16   Atom       -0.000640      0.000205     -0.000217
    17   Atom        0.000214      0.000875     -0.000701
    18   Atom        0.287158     -0.213632     -0.319191
    19   Atom        0.153462     -0.091961     -0.149148
    20   Atom        0.011207      0.000316      0.006227
    21   Atom       -0.019806     -0.014985      0.002047
    22   Atom        1.440164     -0.328365     -0.387592
    23   Atom        0.368525     -0.189729     -0.225028
    24   Atom       -0.018379      0.006287     -0.011779
 --------------------------------------------------------


 ---------------------------------------------------------------------------------
              Anisotropic Spin Dipole Couplings in Principal Axis System
 ---------------------------------------------------------------------------------

       Atom             a.u.   MegaHertz   Gauss  10(-4) cm-1        Axes

              Baa    -0.0585    -7.857    -2.803    -2.621 -0.1193 -0.2509  0.9606
     1 C(13)  Bbb     0.0146     1.955     0.698     0.652 -0.2718  0.9388  0.2115
              Bcc     0.0440     5.901     2.106     1.968  0.9549  0.2359  0.1802
 
              Baa    -0.0563    -7.553    -2.695    -2.519  0.2289  0.9170  0.3266
     2 C(13)  Bbb    -0.0467    -6.262    -2.234    -2.089  0.9166 -0.3160  0.2448
              Bcc     0.1029    13.815     4.929     4.608 -0.3277 -0.2433  0.9129
 
              Baa    -0.0254    -3.409    -1.216    -1.137 -0.6679  0.7399  0.0804
     3 C(13)  Bbb    -0.0160    -2.153    -0.768    -0.718  0.7438  0.6674  0.0372
              Bcc     0.0415     5.563     1.985     1.855  0.0262 -0.0846  0.9961
 
              Baa    -0.0351    -4.714    -1.682    -1.572 -0.2689 -0.2995  0.9154
     4 C(13)  Bbb     0.0140     1.880     0.671     0.627 -0.2583  0.9380  0.2310
              Bcc     0.0211     2.833     1.011     0.945  0.9279  0.1743  0.3296
 
              Baa    -0.0039    -2.100    -0.749    -0.700  0.1855 -0.4028  0.8963
     5 H(1)   Bbb    -0.0016    -0.872    -0.311    -0.291  0.9706 -0.0670 -0.2311
              Bcc     0.0056     2.972     1.060     0.991  0.1532  0.9128  0.3785
 
              Baa    -0.0204    -2.738    -0.977    -0.913 -0.2074 -0.3042  0.9298
     6 C(13)  Bbb     0.0069     0.931     0.332     0.311  0.0843  0.9413  0.3268
              Bcc     0.0135     1.807     0.645     0.603  0.9746 -0.1462  0.1696
 
              Baa    -0.0059    -3.143    -1.122    -1.049  0.2810 -0.4550  0.8450
     7 H(1)   Bbb     0.0011     0.561     0.200     0.187  0.9506  0.2529 -0.1799
              Bcc     0.0048     2.583     0.922     0.862 -0.1318  0.8538  0.5036
 
              Baa    -0.0198    -2.662    -0.950    -0.888 -0.2548  0.9360  0.2430
     8 C(13)  Bbb    -0.0160    -2.149    -0.767    -0.717  0.9321  0.1708  0.3193
              Bcc     0.0359     4.811     1.717     1.605 -0.2574 -0.3079  0.9160
 
              Baa    -0.0014    -0.723    -0.258    -0.241 -0.1744  0.2074  0.9626
     9 H(1)   Bbb    -0.0008    -0.415    -0.148    -0.138  0.1480  0.9720 -0.1826
              Bcc     0.0021     1.138     0.406     0.380  0.9735 -0.1106  0.2002
 
              Baa    -0.0169    -2.265    -0.808    -0.756  0.2431  0.8995  0.3631
    10 C(13)  Bbb    -0.0143    -1.925    -0.687    -0.642  0.9387 -0.3125  0.1455
              Bcc     0.0312     4.190     1.495     1.398 -0.2444 -0.3055  0.9203
 
              Baa    -0.0171    -2.295    -0.819    -0.766 -0.2392 -0.3039  0.9222
    11 C(13)  Bbb     0.0075     1.001     0.357     0.334 -0.1289  0.9513  0.2800
              Bcc     0.0096     1.295     0.462     0.432  0.9624  0.0519  0.2667
 
              Baa    -0.0015    -0.819    -0.292    -0.273  0.1134 -0.3528  0.9288
    12 H(1)   Bbb    -0.0001    -0.046    -0.016    -0.015  0.9934  0.0560 -0.1000
              Bcc     0.0016     0.865     0.309     0.288 -0.0168  0.9340  0.3568
 
              Baa    -0.0190    -2.547    -0.909    -0.850 -0.0702  0.9493  0.3065
    13 C(13)  Bbb    -0.0160    -2.141    -0.764    -0.714  0.9681 -0.0093  0.2505
              Bcc     0.0349     4.688     1.673     1.564 -0.2407 -0.3143  0.9183
 
              Baa    -0.0008    -0.407    -0.145    -0.136 -0.0863 -0.5849  0.8065
    14 H(1)   Bbb    -0.0005    -0.287    -0.102    -0.096 -0.3316  0.7802  0.5304
              Bcc     0.0013     0.694     0.247     0.231  0.9395  0.2216  0.2613
 
              Baa    -0.0221    -2.967    -1.059    -0.990 -0.2422 -0.3030  0.9217
    15 C(13)  Bbb     0.0098     1.311     0.468     0.437  0.0088  0.9493  0.3144
              Bcc     0.0123     1.657     0.591     0.553  0.9702 -0.0843  0.2272
 
              Baa    -0.0010    -0.509    -0.182    -0.170  0.1540  0.7640  0.6266
    16 H(1)   Bbb    -0.0006    -0.344    -0.123    -0.115 -0.2609 -0.5802  0.7716
              Bcc     0.0016     0.853     0.304     0.285  0.9530 -0.2823  0.1099
 
              Baa    -0.0028    -1.511    -0.539    -0.504 -0.0804  0.9504  0.3004
    17 H(1)   Bbb    -0.0004    -0.190    -0.068    -0.063 -0.2229 -0.3109  0.9239
              Bcc     0.0032     1.700     0.607     0.567  0.9715  0.0073  0.2369
 
              Baa    -0.2900   -38.916   -13.886   -12.981  0.8690 -0.2652  0.4178
    18 C(13)  Bbb    -0.2839   -38.101   -13.595   -12.709 -0.1573  0.6525  0.7413
              Bcc     0.5739    77.016    27.481    25.690  0.4692  0.7099 -0.5252
 
              Baa    -0.1463   -78.034   -27.845   -26.029  0.8565 -0.5158  0.0193
    19 H(1)   Bbb    -0.1417   -75.622   -26.984   -25.225  0.2221  0.4021  0.8883
              Bcc     0.2880   153.657    54.828    51.254  0.4659  0.7565 -0.4589
 
              Baa    -0.0338   -18.044    -6.438    -6.019  0.8727 -0.4868  0.0369
    20 H(1)   Bbb    -0.0078    -4.141    -1.478    -1.381  0.4876  0.8656 -0.1141
              Bcc     0.0416    22.185     7.916     7.400  0.0236  0.1176  0.9928
 
              Baa    -0.0343   -18.297    -6.529    -6.103  0.6457  0.1657  0.7454
    21 H(1)   Bbb    -0.0076    -4.072    -1.453    -1.358  0.6672  0.3524 -0.6562
              Bcc     0.0419    22.370     7.982     7.462 -0.3714  0.9211  0.1170
 
[...]
 Predicted change in Energy=-1.068243D-02
 Optimization stopped.
    -- Wrong number of Negative eigenvalues: Desired=  1 Actual=  0
    -- Flag reset to prevent archiving.
                           ----------------------------
                           ! Non-Optimized Parameters !
                           ! (Angstroms and Degrees)  !
 --------------------------                            --------------------------
 ! Name  Definition              Value          Derivative Info.                !
 --------------------------------------------------------------------------------
 ! R1    R(1,2)                  1.3908         -DE/DX =   -0.0188              !
 ! R2    R(1,3)                  1.4081         -DE/DX =    0.0085              !
 ! R3    R(1,18)                 1.4906         -DE/DX =   -0.0117              !
 ! R4    R(2,6)                  1.407          -DE/DX =    0.0061              !
 ! R5    R(2,7)                  1.0839         -DE/DX =   -0.0007              !
 ! R6    R(3,4)                  1.3826         -DE/DX =   -0.0242              !
 ! R7    R(3,5)                  1.0823         -DE/DX =   -0.0008              !
 ! R8    R(4,8)                  1.4077         -DE/DX =    0.0085              !
 ! R9    R(4,9)                  1.0827         -DE/DX =   -0.0011              !
 ! R10   R(6,8)                  1.4199         -DE/DX =    0.004               !
 ! R11   R(6,10)                 1.4085         -DE/DX =    0.0072              !
 ! R12   R(8,15)                 1.4074         -DE/DX =    0.0058              !
 ! R13   R(10,11)                1.3836         -DE/DX =   -0.0233              !
 ! R14   R(10,12)                1.0827         -DE/DX =   -0.0011              !
 ! R15   R(11,13)                1.4018         -DE/DX =    0.0081              !
 ! R16   R(11,14)                1.0818         -DE/DX =   -0.0008              !
 ! R17   R(13,15)                1.3839         -DE/DX =   -0.0227              !
 ! R18   R(13,17)                1.0818         -DE/DX =   -0.0008              !
 ! R19   R(15,16)                1.0826         -DE/DX =   -0.0012              !
 ! R20   R(18,19)                1.2646         -DE/DX =    0.0375              !
 ! R21   R(18,20)                1.0997         -DE/DX =   -0.0134              !
 ! R22   R(18,21)                1.0996         -DE/DX =   -0.0138              !
 ! R23   R(19,22)                1.1405         -DE/DX =    0.0556              !
 ! R24   R(22,23)                1.3405         -DE/DX =    0.0506              !
 ! R25   R(23,24)                0.9789         -DE/DX =   -0.0216              !
 ! A1    A(2,1,3)              119.3335         -DE/DX =   -0.0017              !
 ! A2    A(2,1,18)             119.6677         -DE/DX =    0.0006              !
 ! A3    A(3,1,18)             120.9961         -DE/DX =    0.0011              !
 ! A4    A(1,2,6)              120.8961         -DE/DX =    0.0039              !
 ! A5    A(1,2,7)              119.3448         -DE/DX =   -0.0015              !
 ! A6    A(6,2,7)              119.7589         -DE/DX =   -0.0024              !
 ! A7    A(1,3,4)              120.7145         -DE/DX =    0.0037              !
 ! A8    A(1,3,5)              120.0072         -DE/DX =   -0.0038              !
 ! A9    A(4,3,5)              119.2781         -DE/DX =    0.0001              !
 ! A10   A(3,4,8)              120.533          -DE/DX =    0.0025              !
 ! A11   A(3,4,9)              119.3978         -DE/DX =    0.0011              !
 ! A12   A(8,4,9)              120.0691         -DE/DX =   -0.0036              !
 ! A13   A(2,6,8)              119.3263         -DE/DX =   -0.004               !
 ! A14   A(2,6,10)             121.394          -DE/DX =    0.0078              !
 ! A15   A(8,6,10)             119.2796         -DE/DX =   -0.0039              !
 ! A16   A(4,8,6)              119.1954         -DE/DX =   -0.0045              !
 ! A17   A(4,8,15)             121.4388         -DE/DX =    0.0079              !
 ! A18   A(6,8,15)             119.3658         -DE/DX =   -0.0034              !
 ! A19   A(6,10,11)            120.3577         -DE/DX =    0.0016              !
 ! A20   A(6,10,12)            120.1418         -DE/DX =   -0.0033              !
 ! A21   A(11,10,12)           119.5005         -DE/DX =    0.0017              !
 ! A22   A(10,11,13)           120.3365         -DE/DX =    0.002               !
 ! A23   A(10,11,14)           119.7609         -DE/DX =   -0.0015              !
 ! A24   A(13,11,14)           119.9026         -DE/DX =   -0.0005              !
 ! A25   A(11,13,15)           120.3058         -DE/DX =    0.0018              !
 ! A26   A(11,13,17)           119.9135         -DE/DX =   -0.0005              !
 ! A27   A(15,13,17)           119.7807         -DE/DX =   -0.0014              !
 ! A28   A(8,15,13)            120.3546         -DE/DX =    0.0017              !
 ! A29   A(8,15,16)            120.1279         -DE/DX =   -0.0035              !
 ! A30   A(13,15,16)           119.5175         -DE/DX =    0.0017              !
 ! A31   A(1,18,19)            107.9279         -DE/DX =   -0.0066              !
 ! A32   A(1,18,20)            111.6745         -DE/DX =    0.01                !
 ! A33   A(1,18,21)            112.9734         -DE/DX =    0.0054              !
 ! A34   A(19,18,20)           107.4329         -DE/DX =   -0.0077              !
 ! A35   A(19,18,21)           107.5753         -DE/DX =   -0.0022              !
 ! A36   A(20,18,21)           109.021          -DE/DX =    0.0006              !
 ! A37   A(19,22,23)           105.0781         -DE/DX =   -0.0006              !
 ! A38   A(22,23,24)           105.6054         -DE/DX =    0.0051              !
 ! A39   L(18,19,22,7,-1)      189.6539         -DE/DX =   -0.0028              !
 ! A40   L(18,19,22,7,-2)      194.441          -DE/DX =   -0.0143              !
 ! D1    D(3,1,2,6)             -0.3022         -DE/DX =   -0.0005              !
 ! D2    D(3,1,2,7)            179.8083         -DE/DX =   -0.0002              !
 ! D3    D(18,1,2,6)          -179.7037         -DE/DX =    0.0002              !
 ! D4    D(18,1,2,7)             0.4069         -DE/DX =    0.0004              !
 ! D5    D(2,1,3,4)              0.4161         -DE/DX =    0.0006              !
 ! D6    D(2,1,3,5)           -179.7216         -DE/DX =    0.0003              !
 ! D7    D(18,1,3,4)           179.8093         -DE/DX =    0.0                 !
 ! D8    D(18,1,3,5)            -0.3283         -DE/DX =   -0.0003              !
 ! D9    D(2,1,18,19)           60.3203         -DE/DX =   -0.0005              !
 ! D10   D(2,1,18,20)          -57.5463         -DE/DX =    0.0068              !
 ! D11   D(2,1,18,21)          179.1273         -DE/DX =   -0.0041              !
 ! D12   D(3,1,18,19)         -119.071          -DE/DX =    0.0001              !
 ! D13   D(3,1,18,20)          123.0624         -DE/DX =    0.0075              !
 ! D14   D(3,1,18,21)           -0.2639         -DE/DX =   -0.0035              !
 ! D15   D(1,2,6,8)              0.0721         -DE/DX =    0.0001              !
 ! D16   D(1,2,6,10)          -179.894          -DE/DX =    0.0002              !
 ! D17   D(7,2,6,8)            179.9611         -DE/DX =   -0.0002              !
 ! D18   D(7,2,6,10)            -0.005          -DE/DX =   -0.0001              !
 ! D19   D(1,3,4,8)             -0.2968         -DE/DX =   -0.0005              !
 ! D20   D(1,3,4,9)            179.7892         -DE/DX =   -0.0004              !
 ! D21   D(5,3,4,8)            179.8398         -DE/DX =   -0.0002              !
 ! D22   D(5,3,4,9)             -0.0742         -DE/DX =   -0.0001              !
 ! D23   D(3,4,8,6)              0.0615         -DE/DX =    0.0001              !
 ! D24   D(3,4,8,15)          -179.896          -DE/DX =    0.0001              !
 ! D25   D(9,4,8,6)            179.9748         -DE/DX =    0.0                 !
 ! D26   D(9,4,8,15)             0.0174         -DE/DX =    0.0                 !
 ! D27   D(2,6,8,4)              0.0511         -DE/DX =    0.0001              !
 ! D28   D(2,6,8,15)          -179.9906         -DE/DX =    0.0001              !
 ! D29   D(10,6,8,4)          -179.9821         -DE/DX =    0.0                 !
 ! D30   D(10,6,8,15)           -0.0238         -DE/DX =    0.0                 !
 ! D31   D(2,6,10,11)          179.989          -DE/DX =   -0.0001              !
 ! D32   D(2,6,10,12)            0.0257         -DE/DX =    0.0                 !
 ! D33   D(8,6,10,11)            0.0229         -DE/DX =    0.0                 !
 ! D34   D(8,6,10,12)         -179.9404         -DE/DX =    0.0001              !
 ! D35   D(4,8,15,13)          179.9641         -DE/DX =    0.0                 !
 ! D36   D(4,8,15,16)           -0.025          -DE/DX =    0.0                 !
 ! D37   D(6,8,15,13)            0.0067         -DE/DX =    0.0                 !
 ! D38   D(6,8,15,16)         -179.9824         -DE/DX =    0.0                 !
 ! D39   D(6,10,11,13)          -0.0047         -DE/DX =    0.0                 !
 ! D40   D(6,10,11,14)        -179.9881         -DE/DX =    0.0                 !
 ! D41   D(12,10,11,13)        179.9588         -DE/DX =   -0.0001              !
 ! D42   D(12,10,11,14)         -0.0245         -DE/DX =    0.0                 !
 ! D43   D(10,11,13,15)         -0.0128         -DE/DX =    0.0                 !
 ! D44   D(10,11,13,17)       -179.9991         -DE/DX =    0.0                 !
 ! D45   D(14,11,13,15)        179.9705         -DE/DX =    0.0                 !
 ! D46   D(14,11,13,17)         -0.0158         -DE/DX =    0.0                 !
 ! D47   D(11,13,15,8)           0.0117         -DE/DX =    0.0                 !
 ! D48   D(11,13,15,16)       -179.9992         -DE/DX =    0.0                 !
 ! D49   D(17,13,15,8)         179.998          -DE/DX =    0.0                 !
 ! D50   D(17,13,15,16)         -0.0128         -DE/DX =    0.0                 !
 ! D51   D(1,18,22,23)          43.8233         -DE/DX =   -0.003               !
 ! D52   D(20,18,22,23)        165.6355         -DE/DX =    0.0018              !
 ! D53   D(21,18,22,23)        -80.7722         -DE/DX =    0.0004              !
 ! D54   D(19,22,23,24)        -93.999          -DE/DX =    0.0018              !
 --------------------------------------------------------------------------------
 GradGradGradGradGradGradGradGradGradGradGradGradGradGradGradGradGradGrad

                          Input orientation:                          
 ---------------------------------------------------------------------
 Center     Atomic      Atomic             Coordinates (Angstroms)
 Number     Number       Type             X           Y           Z
 ---------------------------------------------------------------------
      1          6           0       -8.416650    0.160130   -0.471860
      2          6           0       -7.382030    1.105780   -0.422670
      3          6           0       -8.124440   -1.199480   -0.283140
      4          6           0       -6.811040   -1.614580   -0.047110
      5          1           0       -8.912760   -1.941110   -0.319280
      6          6           0       -6.060200    0.699260   -0.186240
      7          1           0       -7.610080    2.155710   -0.569690
      8          6           0       -5.771850   -0.674310    0.003210
      9          1           0       -6.608250   -2.669410    0.095320
     10          6           0       -5.019760    1.640260   -0.135950
     11          6           0       -3.706750    1.222640    0.099800
     12          1           0       -5.221170    2.695320   -0.278510
     13          6           0       -3.422400   -0.132780    0.286480
     14          1           0       -2.907440    1.951470    0.137800
     15          6           0       -4.449080   -1.080260    0.238950
     16          1           0       -4.209850   -2.126780    0.385840
     17          1           0       -2.403650   -0.449860    0.468450
     18          6           0       -9.822870    0.615080   -0.729880
     19          1           0       -9.875110    1.175870   -1.814720
     20          1           0      -10.138690    1.321510    0.067120
     21          1           0      -10.533010   -0.239300   -0.742720
     22          8           0       -9.965070    1.858670   -2.667670
     23          8           0       -9.259320    1.301850   -3.631100
     24          1           0       -8.367760    1.730590   -3.570830
 ---------------------------------------------------------------------
                    Distance matrix (angstroms):
                    1          2          3          4          5
     1  C    0.000000
     2  C    1.402538   0.000000
     3  C    1.403403   2.425874   0.000000
     4  C    2.430636   2.804895   1.397511   0.000000
     5  H    2.164397   3.411358   1.082945   2.144277   0.000000
     6  C    2.434152   1.402994   2.806366   2.436591   3.889261
     7  H    2.154638   1.084424   3.406461   3.889298   4.306230
     8  C    2.813707   2.437781   2.427443   1.402339   3.402073
     9  H    3.405628   3.888330   2.145404   1.083548   2.452158
    10  C    3.720549   2.438893   4.210086   3.716256   5.292945
    11  C    4.861983   3.714070   5.052652   4.208089   6.106348
    12  H    4.083585   2.686398   4.857825   4.599616   5.926718
    13  C    5.059981   4.208990   4.855049   3.713475   5.812147
    14  H    5.825116   4.588167   6.109236   5.290463   7.171121
    15  C    4.217278   3.717352   3.714171   2.438480   4.580079
    16  H    4.864440   4.600637   4.078166   2.686258   4.759100
    17  H    6.116571   5.291349   5.818441   4.587751   6.724051
    18  C    1.500336   2.508558   2.525246   3.809026   2.744267
    19  H    2.227579   2.856250   3.324586   4.505506   3.588596
    20  H    2.145862   2.808132   3.245809   4.439249   3.506693
    21  H    2.170689   3.440981   2.633319   4.028440   2.387607
    22  O    3.178714   3.504135   4.292573   5.373891   4.589185
    23  O    3.463295   3.722457   4.330524   5.229209   4.648123
    24  H    3.474529   3.357523   4.410603   5.101974   4.934672
                    6          7          8          9         10
     6  C    0.000000
     7  H    2.161113   0.000000
     8  C    1.416239   3.422911   0.000000
     9  H    3.424554   4.972694   2.165288   0.000000
    10  C    1.403754   2.676486   2.437671   4.598917   0.000000
    11  C    2.427853   4.068762   2.805777   4.854562   1.397848
    12  H    2.167196   2.466345   3.425934   5.553744   1.083532
    13  C    2.806019   4.848389   2.427635   4.076846   2.423567
    14  H    3.407775   4.759945   3.888146   5.920332   2.152600
    15  C    2.437865   4.595359   1.403599   2.684780   2.804898
    16  H    3.426014   5.551065   2.167007   2.476120   3.888291
    17  H    3.888374   5.913852   3.407579   4.769097   3.402636
    18  C    3.802672   2.701044   4.314013   4.669327   4.947081
    19  H    4.175242   2.764154   4.854357   5.395072   5.158328
    20  H    4.133457   2.737752   4.801737   5.328437   5.132863
    21  H    4.603976   3.782794   4.838831   4.691640   5.856351
    22  O    4.769668   3.167922   5.579667   6.277409   5.559982
    23  O    4.739678   3.580684   5.410718   6.056838   5.504949
    24  H    4.224207   3.124364   5.029518   5.991371   4.797464
                   11         12         13         14         15
    11  C    0.000000
    12  H    2.146013   0.000000
    13  C    1.397450   3.398961   0.000000
    14  H    1.082374   2.465760   2.152066   0.000000
    15  C    2.423585   3.888302   1.397873   3.402686   0.000000
    16  H    3.399050   4.971597   2.146156   4.288347   1.083518
    17  H    2.152029   4.288184   1.082361   2.475787   2.152640
    18  C    6.201969   5.070185   6.523672   7.096617   5.717554
    19  H    6.458811   5.131065   6.911228   7.277521   6.224908
    20  H    6.432783   5.117501   6.875437   7.258982   6.178162
    21  H    7.031709   6.086307   7.185497   7.982738   6.219734
    22  O    6.872408   5.377049   7.449792   7.595355   6.892887
    23  O    6.690061   5.430311   7.174624   7.414377   6.617412
    24  H    5.954540   4.655223   6.542750   6.604379   6.145840
                   16         17         18         19         20
    16  H    0.000000
    17  H    2.466018   0.000000
    18  C    6.345756   7.590449   0.000000
    19  H    6.917018   7.979886   1.222331   0.000000
    20  H    6.866107   7.945418   1.110853   1.905783   0.000000
    21  H    6.694668   8.221786   1.111049   1.893336   1.802070
    22  O    7.637427   8.505271   2.306896   1.096281   2.792447
    23  O    7.306741   8.177714   3.034192   1.922057   3.801383
    24  H    6.915400   7.526005   3.381228   2.379861   4.066721
                   21         22         23         24
    21  H    0.000000
    22  O    2.903354   0.000000
    23  O    3.512858   1.317698   0.000000
    24  H    4.070256   1.839430   0.991125   0.000000
 Stoichiometry    C11H11O2(2)
 Framework group  C1[X(C11H11O2)]
 Deg. of freedom    66
 Full point group                 C1      NOp   1
 Largest Abelian subgroup         C1      NOp   1
 Largest concise Abelian subgroup C1      NOp   1
                         Standard orientation:                         
 ---------------------------------------------------------------------
 Center     Atomic      Atomic             Coordinates (Angstroms)
 Number     Number       Type             X           Y           Z
 ---------------------------------------------------------------------
      1          6           0       -1.202318    0.757118   -0.537511
      2          6           0       -0.426815   -0.398441   -0.711836
      3          6           0       -0.614896    1.913441   -0.001420
      4          6           0        0.735424    1.919039    0.358640
      5          1           0       -1.201376    2.812815    0.139783
      6          6           0        0.929662   -0.403023   -0.353590
      7          1           0       -0.883106   -1.291037   -1.125414
      8          6           0        1.516471    0.767046    0.187081
      9          1           0        1.168090    2.822764    0.771143
     10          6           0        1.711687   -1.556083   -0.525099
     11          6           0        3.062007   -1.548252   -0.163776
     12          1           0        1.280166   -2.460517   -0.937204
     13          6           0        3.640785   -0.393675    0.369922
     14          1           0        3.661452   -2.439472   -0.297665
     15          6           0        2.873413    0.761408    0.545920
     16          1           0        3.339070    1.647230    0.961243
     17          1           0        4.686831   -0.394000    0.647937
     18          6           0       -2.652116    0.740067   -0.923264
     19          1           0       -3.234857   -0.115118   -0.272753
     20          1           0       -2.747528    0.510086   -2.005853
     21          1           0       -3.138364    1.719946   -0.728769
     22          8           0       -3.781359   -0.982410    0.115799
     23          8           0       -3.429514   -1.072571    1.382450
     24          1           0       -2.683214   -1.724715    1.391167
 ---------------------------------------------------------------------
 Rotational constants (GHZ):           1.5532000           0.4445649           0.3842776


 IF MATHEMATICALLY YOU END UP WITH THE INCORRECT ANSWER,
 TRY MULTIPLYING BY THE PAGE NUMBER.
 Error termination request processed by link 9999.
 Error termination via Lnk1e in /shared/centos7/gaussian/g16/l9999.exe at Mon Oct 15 19:17:21 2018.
 Job cpu time:       0 days  2 hours  1 minutes  9.9 seconds.
 Elapsed time:       0 days  2 hours  1 minutes 13.3 seconds.
 File lengths (MBytes):  RWF=    496 Int=      0 D2E=      0 Chk=     48 Scr=     32
