 Entering Gaussian System, Link 0=g16
 Input=rxn905.com
 Output=rxn905.log
 Initial command:
 /shared/centos7/gaussian/g16/l1.exe "/scratch/dinius.ab/QMscratch/Gau-24138.inp" -scrdir="/scratch/dinius.ab/QMscratch/"
 Entering Link 1 = /shared/centos7/gaussian/g16/l1.exe PID=     24139.
  
 Copyright (c) 1988,1990,1992,1993,1995,1998,2003,2009,2016,
            Gaussian, Inc.  All Rights Reserved.
  
 This is part of the Gaussian(R) 16 program.  It is based on
 the Gaussian(R) 09 system (copyright 2009, Gaussian, Inc.),
 the Gaussian(R) 03 system (copyright 2003, Gaussian, Inc.),
 the Gaussian(R) 98 system (copyright 1998, Gaussian, Inc.),
 the Gaussian(R) 94 system (copyright 1995, Gaussian, Inc.),
 the Gaussian 92(TM) system (copyright 1992, Gaussian, Inc.),
 the Gaussian 90(TM) system (copyright 1990, Gaussian, Inc.),
 the Gaussian 88(TM) system (copyright 1988, Gaussian, Inc.),
 the Gaussian 86(TM) system (copyright 1986, Carnegie Mellon
 University), and the Gaussian 82(TM) system (copyright 1983,
 Carnegie Mellon University). Gaussian is a federally registered
 trademark of Gaussian, Inc.
  
 This software contains proprietary and confidential information,
 including trade secrets, belonging to Gaussian, Inc.
  
 This software is provided under written license and may be
 used, copied, transmitted, or stored only in accord with that
 written license.
  
 The following legend is applicable only to US Government
 contracts under FAR:
  
                    RESTRICTED RIGHTS LEGEND
  
 Use, reproduction and disclosure by the US Government is
 subject to restrictions as set forth in subparagraphs (a)
 and (c) of the Commercial Computer Software - Restricted
 Rights clause in FAR 52.227-19.
  
 Gaussian, Inc.
 340 Quinnipiac St., Bldg. 40, Wallingford CT 06492
  
  
 ---------------------------------------------------------------
 Warning -- This program may not be used in any manner that
 competes with the business of Gaussian, Inc. or will provide
 assistance to any competitor of Gaussian, Inc.  The licensee
 of this program is prohibited from giving any competitor of
 Gaussian, Inc. access to this program.  By using this program,
 the user acknowledges that Gaussian, Inc. is engaged in the
 business of creating and licensing software in the field of
 computational chemistry and represents and warrants to the
 licensee that it is not a competitor of Gaussian, Inc. and that
 it will not use this program in any manner prohibited above.
 ---------------------------------------------------------------
  

 Cite this work as:
 Gaussian 16, Revision A.03,
 M. J. Frisch, G. W. Trucks, H. B. Schlegel, G. E. Scuseria, 
 M. A. Robb, J. R. Cheeseman, G. Scalmani, V. Barone, 
 G. A. Petersson, H. Nakatsuji, X. Li, M. Caricato, A. V. Marenich, 
 J. Bloino, B. G. Janesko, R. Gomperts, B. Mennucci, H. P. Hratchian, 
 J. V. Ortiz, A. F. Izmaylov, J. L. Sonnenberg, D. Williams-Young, 
 F. Ding, F. Lipparini, F. Egidi, J. Goings, B. Peng, A. Petrone, 
 T. Henderson, D. Ranasinghe, V. G. Zakrzewski, J. Gao, N. Rega, 
 G. Zheng, W. Liang, M. Hada, M. Ehara, K. Toyota, R. Fukuda, 
 J. Hasegawa, M. Ishida, T. Nakajima, Y. Honda, O. Kitao, H. Nakai, 
 T. Vreven, K. Throssell, J. A. Montgomery, Jr., J. E. Peralta, 
 F. Ogliaro, M. J. Bearpark, J. J. Heyd, E. N. Brothers, K. N. Kudin, 
 V. N. Staroverov, T. A. Keith, R. Kobayashi, J. Normand, 
 K. Raghavachari, A. P. Rendell, J. C. Burant, S. S. Iyengar, 
 J. Tomasi, M. Cossi, J. M. Millam, M. Klene, C. Adamo, R. Cammi, 
 J. W. Ochterski, R. L. Martin, K. Morokuma, O. Farkas, 
 J. B. Foresman, and D. J. Fox, Gaussian, Inc., Wallingford CT, 2016.
 
 ******************************************
 Gaussian 16:  EM64L-G16RevA.03 25-Dec-2016
                 6-Nov-2018 
 ******************************************
 ----------------------------------------------------------------------
 #m062x/6-311+g(2df,2p) Opt=(ModRedun,Loose,maxcycle=1000) Int(Grid=SG1
 ) freq
 ----------------------------------------------------------------------
 1/6=1000,7=-1,18=120,19=15,26=2,38=1/1,3;
 2/9=110,12=2,17=6,18=5,40=1/2;
 3/5=4,6=6,7=214,11=2,25=1,30=1,71=1,74=-55,75=1/1,2,3;
 4//1;
 5/5=2,38=5/2;
 6/7=2,8=2,9=2,10=2,28=1/1;
 7//1,2,3,16;
 1/6=1000,7=-1,18=20,19=15,26=2/3(2);
 2/9=110/2;
 99//99;
 2/9=110/2;
 3/5=4,6=6,7=214,11=2,25=1,30=1,71=1,74=-55,75=1/1,2,3;
 4/5=5,16=3,69=1/1;
 5/5=2,38=5/2;
 7//1,2,3,16;
 1/6=1000,7=-1,18=20,19=15,26=2/3(-5);
 2/9=110/2;
 6/7=2,8=2,9=2,10=2,19=2,28=1/1;
 99/9=1/99;
 -----
 Title
 -----
 Symbolic Z-matrix:
 Charge =  0 Multiplicity = 2
 C                    -3.44398  -11.88644  -0.34641 
 C                    -3.71398  -11.91223  -1.71103 
 C                    -3.00692  -10.71034   0.25941 
 H                    -3.57472  -12.78671   0.24904 
 C                    -2.83386  -9.54088  -0.49443 
 H                    -2.80608  -10.7276   1.3267 
 C                    -3.54643  -10.75953  -2.4726 
 H                    -4.05528  -12.83106  -2.18155 
 C                    -3.10874  -9.57756  -1.872 
 H                    -3.75957  -10.78742  -3.5388 
 C                    -2.39501  -8.34078   0.09353 
 C                    -2.94695  -8.4325   -2.65136 
 C                    -2.23875  -7.20315  -0.70388 
 C                    -2.51249  -7.24787  -2.06734 
 H                    -3.15916  -8.45812  -3.71782 
 H                    -1.90096  -6.26678  -0.2655 
 H                    -2.38726  -6.35591  -2.67637 
 C                    -2.0837   -8.24132   1.58321 
 H                    -2.96949  -8.49367   2.17207 
 H                    -1.28201  -8.93511   1.84888 
 H                    -1.76511  -7.2331    1.86839 
 O                    -1.47616  -6.3999    2.53173 
 O                    -1.48979  -5.52565   3.71395 
 H                    -0.82134  -5.98262   4.25683 
 
 The following ModRedundant input section has been read:
 

 GradGradGradGradGradGradGradGradGradGradGradGradGradGradGradGradGradGrad
 Berny optimization.
 Initialization pass.
                           ----------------------------
                           !    Initial Parameters    !
                           ! (Angstroms and Degrees)  !
 --------------------------                            --------------------------
 ! Name  Definition              Value          Derivative Info.                !
 --------------------------------------------------------------------------------
 ! R1    R(1,2)                  1.3913         estimate D2E/DX2                !
 ! R2    R(1,3)                  1.3933         estimate D2E/DX2                !
 ! R3    R(1,4)                  1.0873         estimate D2E/DX2                !
 ! R4    R(2,7)                  1.3917         estimate D2E/DX2                !
 ! R5    R(2,8)                  1.0873         estimate D2E/DX2                !
 ! R6    R(3,5)                  1.4021         estimate D2E/DX2                !
 ! R7    R(3,6)                  1.0862         estimate D2E/DX2                !
 ! R8    R(5,9)                  1.4052         estimate D2E/DX2                !
 ! R9    R(5,11)                 1.4066         estimate D2E/DX2                !
 ! R10   R(7,9)                  1.3962         estimate D2E/DX2                !
 ! R11   R(7,10)                 1.0877         estimate D2E/DX2                !
 ! R12   R(9,12)                 1.3945         estimate D2E/DX2                !
 ! R13   R(11,13)                1.398          estimate D2E/DX2                !
 ! R14   R(11,18)                1.5251         estimate D2E/DX2                !
 ! R15   R(12,14)                1.3904         estimate D2E/DX2                !
 ! R16   R(12,15)                1.0877         estimate D2E/DX2                !
 ! R17   R(13,14)                1.3914         estimate D2E/DX2                !
 ! R18   R(13,16)                1.0877         estimate D2E/DX2                !
 ! R19   R(14,17)                1.0873         estimate D2E/DX2                !
 ! R20   R(18,19)                1.0932         estimate D2E/DX2                !
 ! R21   R(18,20)                1.093          estimate D2E/DX2                !
 ! R22   R(18,21)                1.0951         estimate D2E/DX2                !
 ! R23   R(21,22)                1.1035         estimate D2E/DX2                !
 ! R24   R(22,23)                1.4704         estimate D2E/DX2                !
 ! R25   R(23,24)                0.9749         estimate D2E/DX2                !
 ! A1    A(2,1,3)              120.1982         estimate D2E/DX2                !
 ! A2    A(2,1,4)              119.8988         estimate D2E/DX2                !
 ! A3    A(3,1,4)              119.903          estimate D2E/DX2                !
 ! A4    A(1,2,7)              119.8687         estimate D2E/DX2                !
 ! A5    A(1,2,8)              120.0688         estimate D2E/DX2                !
 ! A6    A(7,2,8)              120.0625         estimate D2E/DX2                !
 ! A7    A(1,3,5)              120.5975         estimate D2E/DX2                !
 ! A8    A(1,3,6)              118.1544         estimate D2E/DX2                !
 ! A9    A(5,3,6)              121.2481         estimate D2E/DX2                !
 ! A10   A(3,5,9)              118.7614         estimate D2E/DX2                !
 ! A11   A(3,5,11)             121.6953         estimate D2E/DX2                !
 ! A12   A(9,5,11)             119.5433         estimate D2E/DX2                !
 ! A13   A(2,7,9)              120.2341         estimate D2E/DX2                !
 ! A14   A(2,7,10)             119.4461         estimate D2E/DX2                !
 ! A15   A(9,7,10)             120.3198         estimate D2E/DX2                !
 ! A16   A(5,9,7)              120.3401         estimate D2E/DX2                !
 ! A17   A(5,9,12)             120.2482         estimate D2E/DX2                !
 ! A18   A(7,9,12)             119.4117         estimate D2E/DX2                !
 ! A19   A(5,11,13)            119.3884         estimate D2E/DX2                !
 ! A20   A(5,11,18)            121.8446         estimate D2E/DX2                !
 ! A21   A(13,11,18)           118.767          estimate D2E/DX2                !
 ! A22   A(9,12,14)            120.0725         estimate D2E/DX2                !
 ! A23   A(9,12,15)            120.3971         estimate D2E/DX2                !
 ! A24   A(14,12,15)           119.5303         estimate D2E/DX2                !
 ! A25   A(11,13,14)           120.7165         estimate D2E/DX2                !
 ! A26   A(11,13,16)           120.3551         estimate D2E/DX2                !
 ! A27   A(14,13,16)           118.9284         estimate D2E/DX2                !
 ! A28   A(12,14,13)           120.0311         estimate D2E/DX2                !
 ! A29   A(12,14,17)           119.9776         estimate D2E/DX2                !
 ! A30   A(13,14,17)           119.9913         estimate D2E/DX2                !
 ! A31   A(11,18,19)           110.2244         estimate D2E/DX2                !
 ! A32   A(11,18,20)           110.2273         estimate D2E/DX2                !
 ! A33   A(11,18,21)           111.9487         estimate D2E/DX2                !
 ! A34   A(19,18,20)           108.4736         estimate D2E/DX2                !
 ! A35   A(19,18,21)           107.9368         estimate D2E/DX2                !
 ! A36   A(20,18,21)           107.9211         estimate D2E/DX2                !
 ! A37   A(18,21,22)           158.0984         estimate D2E/DX2                !
 ! A38   A(21,22,23)           158.402          estimate D2E/DX2                !
 ! A39   A(22,23,24)            99.3621         estimate D2E/DX2                !
 ! D1    D(3,1,2,7)              0.0168         estimate D2E/DX2                !
 ! D2    D(3,1,2,8)           -179.978          estimate D2E/DX2                !
 ! D3    D(4,1,2,7)            179.9995         estimate D2E/DX2                !
 ! D4    D(4,1,2,8)              0.0048         estimate D2E/DX2                !
 ! D5    D(2,1,3,5)              0.0077         estimate D2E/DX2                !
 ! D6    D(2,1,3,6)            179.9922         estimate D2E/DX2                !
 ! D7    D(4,1,3,5)           -179.975          estimate D2E/DX2                !
 ! D8    D(4,1,3,6)              0.0095         estimate D2E/DX2                !
 ! D9    D(1,2,7,9)             -0.0152         estimate D2E/DX2                !
 ! D10   D(1,2,7,10)          -179.9957         estimate D2E/DX2                !
 ! D11   D(8,2,7,9)            179.9796         estimate D2E/DX2                !
 ! D12   D(8,2,7,10)            -0.001          estimate D2E/DX2                !
 ! D13   D(1,3,5,9)             -0.0332         estimate D2E/DX2                !
 ! D14   D(1,3,5,11)           179.9409         estimate D2E/DX2                !
 ! D15   D(6,3,5,9)            179.9827         estimate D2E/DX2                !
 ! D16   D(6,3,5,11)            -0.0431         estimate D2E/DX2                !
 ! D17   D(3,5,9,7)              0.0348         estimate D2E/DX2                !
 ! D18   D(3,5,9,12)          -179.9877         estimate D2E/DX2                !
 ! D19   D(11,5,9,7)          -179.94           estimate D2E/DX2                !
 ! D20   D(11,5,9,12)            0.0376         estimate D2E/DX2                !
 ! D21   D(3,5,11,13)          179.9907         estimate D2E/DX2                !
 ! D22   D(3,5,11,18)           -0.0651         estimate D2E/DX2                !
 ! D23   D(9,5,11,13)           -0.0353         estimate D2E/DX2                !
 ! D24   D(9,5,11,18)          179.9088         estimate D2E/DX2                !
 ! D25   D(2,7,9,5)             -0.0109         estimate D2E/DX2                !
 ! D26   D(2,7,9,12)          -179.9886         estimate D2E/DX2                !
 ! D27   D(10,7,9,5)           179.9695         estimate D2E/DX2                !
 ! D28   D(10,7,9,12)           -0.0082         estimate D2E/DX2                !
 ! D29   D(5,9,12,14)           -0.0121         estimate D2E/DX2                !
 ! D30   D(5,9,12,15)         -179.9905         estimate D2E/DX2                !
 ! D31   D(7,9,12,14)          179.9656         estimate D2E/DX2                !
 ! D32   D(7,9,12,15)           -0.0127         estimate D2E/DX2                !
 ! D33   D(5,11,13,14)           0.0079         estimate D2E/DX2                !
 ! D34   D(5,11,13,16)         179.9586         estimate D2E/DX2                !
 ! D35   D(18,11,13,14)       -179.938          estimate D2E/DX2                !
 ! D36   D(18,11,13,16)          0.0128         estimate D2E/DX2                !
 ! D37   D(5,11,18,19)         -59.2976         estimate D2E/DX2                !
 ! D38   D(5,11,18,20)          60.4138         estimate D2E/DX2                !
 ! D39   D(5,11,18,21)        -179.4509         estimate D2E/DX2                !
 ! D40   D(13,11,18,19)        120.6469         estimate D2E/DX2                !
 ! D41   D(13,11,18,20)       -119.6417         estimate D2E/DX2                !
 ! D42   D(13,11,18,21)          0.4936         estimate D2E/DX2                !
 ! D43   D(9,12,14,13)          -0.0156         estimate D2E/DX2                !
 ! D44   D(9,12,14,17)        -179.9754         estimate D2E/DX2                !
 ! D45   D(15,12,14,13)        179.9629         estimate D2E/DX2                !
 ! D46   D(15,12,14,17)          0.0032         estimate D2E/DX2                !
 ! D47   D(11,13,14,12)          0.0177         estimate D2E/DX2                !
 ! D48   D(11,13,14,17)        179.9775         estimate D2E/DX2                !
 ! D49   D(16,13,14,12)       -179.9337         estimate D2E/DX2                !
 ! D50   D(16,13,14,17)          0.0261         estimate D2E/DX2                !
 ! D51   D(11,18,21,22)        172.5337         estimate D2E/DX2                !
 ! D52   D(19,18,21,22)         51.0538         estimate D2E/DX2                !
 ! D53   D(20,18,21,22)        -65.9933         estimate D2E/DX2                !
 ! D54   D(18,21,22,23)        -37.694          estimate D2E/DX2                !
 ! D55   D(21,22,23,24)         91.4376         estimate D2E/DX2                !
 --------------------------------------------------------------------------------
 Trust Radius=3.00D-01 FncErr=1.00D-05 GrdErr=1.00D-04 EigMax=2.50D+02 EigMin=1.00D-04
 Number of steps in this run=    144 maximum allowed number of steps=    144.
 GradGradGradGradGradGradGradGradGradGradGradGradGradGradGradGradGradGrad

                          Input orientation:                          
 ---------------------------------------------------------------------
 Center     Atomic      Atomic             Coordinates (Angstroms)
 Number     Number       Type             X           Y           Z
 ---------------------------------------------------------------------
      1          6           0       -3.443980  -11.886440   -0.346410
      2          6           0       -3.713980  -11.912230   -1.711030
      3          6           0       -3.006920  -10.710340    0.259410
      4          1           0       -3.574720  -12.786710    0.249040
      5          6           0       -2.833860   -9.540880   -0.494430
      6          1           0       -2.806080  -10.727600    1.326700
      7          6           0       -3.546430  -10.759530   -2.472600
      8          1           0       -4.055280  -12.831060   -2.181550
      9          6           0       -3.108740   -9.577560   -1.872000
     10          1           0       -3.759570  -10.787420   -3.538800
     11          6           0       -2.395010   -8.340780    0.093530
     12          6           0       -2.946950   -8.432500   -2.651360
     13          6           0       -2.238750   -7.203150   -0.703880
     14          6           0       -2.512490   -7.247870   -2.067340
     15          1           0       -3.159160   -8.458120   -3.717820
     16          1           0       -1.900960   -6.266780   -0.265500
     17          1           0       -2.387260   -6.355910   -2.676370
     18          6           0       -2.083700   -8.241320    1.583210
     19          1           0       -2.969490   -8.493670    2.172070
     20          1           0       -1.282010   -8.935110    1.848880
     21          1           0       -1.765110   -7.233100    1.868390
     22          8           0       -1.476160   -6.399900    2.531730
     23          8           0       -1.489790   -5.525650    3.713950
     24          1           0       -0.821340   -5.982620    4.256830
 ---------------------------------------------------------------------
                    Distance matrix (angstroms):
                    1          2          3          4          5
     1  C    0.000000
     2  C    1.391313   0.000000
     3  C    1.393288   2.413940   0.000000
     4  H    1.087262   2.150810   2.152630   0.000000
     5  C    2.428129   2.806782   1.402092   3.411310   0.000000
     6  H    2.132867   3.384588   1.086160   2.447875   2.173842
     7  C    2.408549   1.391682   2.785205   3.393757   2.430231
     8  H    2.152611   1.087255   3.399235   2.478038   3.894037
     9  C    2.787604   2.417211   2.415878   3.874867   1.405206
    10  H    3.390987   2.146630   3.872831   4.287081   3.417454
    11  C    3.723653   4.213238   2.452909   4.602412   1.406601
    12  C    4.182049   3.685251   3.696584   5.269304   2.427683
    13  C    4.849079   5.036476   3.717310   5.819709   2.421365
    14  C    5.034442   4.829781   4.200824   6.096942   2.799146
    15  H    4.816732   4.033101   4.573186   5.886031   3.415909
    16  H    5.828210   6.103090   4.609111   6.750979   3.412102
    17  H    6.093614   5.793510   5.288085   7.164026   3.886431
    18  C    4.342890   5.194748   2.949719   4.966258   2.562847
    19  H    4.251914   5.226785   2.928019   4.742841   2.867973
    20  H    4.266587   5.239340   2.941627   4.759289   2.875117
    21  H    5.420103   6.205207   4.027668   6.061317   3.471454
    22  O    6.500625   7.307163   5.107500   7.099716   4.568014
    23  O    7.795193   8.669823   6.412218   8.311169   5.969846
    24  H    7.932411   8.896235   6.565627   8.362961   6.267848
                    6          7          8          9         10
     6  H    0.000000
     7  C    3.870894   0.000000
     8  H    4.277016   2.152876   0.000000
     9  C    3.412606   1.396190   3.402502   0.000000
    10  H    4.958408   1.087653   2.471040   2.159991   0.000000
    11  C    2.717829   3.709601   5.300481   2.429474   4.587144
    12  C    4.594811   2.409647   4.560312   1.394540   2.644532
    13  C    4.106929   4.181655   6.095626   2.785536   4.816291
    14  C    4.869725   3.683073   5.793553   2.412701   4.030982
    15  H    5.542778   2.645192   4.720780   2.159338   2.412090
    16  H    4.822163   5.269124   7.169527   3.873092   5.882611
    17  H    5.942361   4.558187   6.704827   3.398025   4.718612
    18  C    2.601772   4.993051   6.255099   3.843790   5.960382
    19  H    2.394117   5.199994   6.240665   4.189118   6.204801
    20  H    2.410079   5.208771   6.254104   4.194596   6.212604
    21  H    3.686269   5.869668   7.279014   4.614364   6.771172
    22  O    4.685058   6.952389   8.380136   5.670598   7.830430
    23  O    5.872978   8.360423   9.731787   7.088146   9.243403
    24  H    5.919433   8.690812   9.940434   7.464472   9.617232
                   11         12         13         14         15
    11  C    0.000000
    12  C    2.801334   0.000000
    13  C    1.398028   2.409466   0.000000
    14  C    2.424379   1.390390   1.391387   0.000000
    15  H    3.888969   1.087670   3.392040   2.146386   0.000000
    16  H    2.162051   3.387738   1.087689   2.140826   4.278265
    17  H    3.407655   2.150838   2.151880   1.087287   2.469764
    18  C    1.525107   4.325891   2.516469   3.807535   5.413366
    19  H    2.161881   4.823871   3.235817   4.442236   5.893050
    20  H    2.161770   4.824604   3.229802   4.438202   5.894011
    21  H    2.184916   4.823219   2.615684   4.006091   5.886407
    22  O    3.249018   5.758395   3.419931   4.790039   6.791586
    23  O    4.674593   7.147745   4.784576   6.118437   8.161947
    24  H    5.036906   7.631725   5.301640   6.667531   8.671133
                   16         17         18         19         20
    16  H    0.000000
    17  H    2.461042   0.000000
    18  C    2.711076   4.668077   0.000000
    19  H    3.470237   5.330702   1.093188   0.000000
    20  H    3.460302   5.324635   1.092992   1.773953   0.000000
    21  H    2.346426   4.670265   1.095141   1.769686   1.769351
    22  O    2.832432   5.287376   2.158616   2.596779   2.632730
    23  O    4.068705   6.506226   3.502520   3.657328   3.891796
    24  H    4.658089   7.117634   3.720688   3.907191   3.837660
                   21         22         23         24
    21  H    0.000000
    22  O    1.103510   0.000000
    23  O    2.529284   1.470423   0.000000
    24  H    2.856405   1.891793   0.974867   0.000000
 Stoichiometry    C11H11O2(2)
 Framework group  C1[X(C11H11O2)]
 Deg. of freedom    66
 Full point group                 C1      NOp   1
 Largest Abelian subgroup         C1      NOp   1
 Largest concise Abelian subgroup C1      NOp   1
                         Standard orientation:                         
 ---------------------------------------------------------------------
 Center     Atomic      Atomic             Coordinates (Angstroms)
 Number     Number       Type             X           Y           Z
 ---------------------------------------------------------------------
      1          6           0        2.493451   -2.026457   -0.014370
      2          6           0        3.504202   -1.071531   -0.061816
      3          6           0        1.157936   -1.631787    0.029041
      4          1           0        2.746552   -3.083846   -0.011446
      5          6           0        0.815035   -0.272277    0.025380
      6          1           0        0.395951   -2.404967    0.065299
      7          6           0        3.179526    0.281743   -0.065542
      8          1           0        4.545664   -1.381871   -0.096001
      9          6           0        1.843321    0.684264   -0.022162
     10          1           0        3.975156    1.022398   -0.102833
     11          6           0       -0.525420    0.151919    0.067387
     12          6           0        1.537453    2.044838   -0.026887
     13          6           0       -0.812513    1.520140    0.061871
     14          6           0        0.211477    2.461005    0.015245
     15          1           0        2.331443    2.787296   -0.063797
     16          1           0       -1.843405    1.865602    0.093280
     17          1           0       -0.025258    3.522199    0.011090
     18          6           0       -1.682300   -0.840571    0.117812
     19          1           0       -1.658705   -1.493330   -0.758778
     20          1           0       -1.608598   -1.461632    1.014184
     21          1           0       -2.654057   -0.335919    0.136466
     22          8           0       -3.751931   -0.227205    0.112196
     23          8           0       -5.142700   -0.484306   -0.290054
     24          1           0       -5.380712   -1.151557    0.379641
 ---------------------------------------------------------------------
 Rotational constants (GHZ):           1.5883112           0.4111335           0.3281852
 Standard basis: 6-311+G(2df,2p) (5D, 7F)
 There are   606 symmetry adapted cartesian basis functions of A   symmetry.
 There are   541 symmetry adapted basis functions of A   symmetry.
   541 basis functions,   797 primitive gaussians,   606 cartesian basis functions
    47 alpha electrons       46 beta electrons
       nuclear repulsion energy       717.2873540786 Hartrees.
 NAtoms=   24 NActive=   24 NUniq=   24 SFac= 1.00D+00 NAtFMM=   60 NAOKFM=F Big=F
 Integral buffers will be    131072 words long.
 Raffenetti 2 integral format.
 Two-electron integral symmetry is turned on.
 One-electron integrals computed using PRISM.
 NBasis=   541 RedAO= T EigKep=  1.09D-06  NBF=   541
 NBsUse=   538 1.00D-06 EigRej=  7.11D-07 NBFU=   538
 ExpMin= 4.38D-02 ExpMax= 8.59D+03 ExpMxC= 1.30D+03 IAcc=2 IRadAn=         4 AccDes= 0.00D+00
 Harris functional with IExCor= 1009 and IRadAn=       4 diagonalized for initial guess.
 HarFok:  IExCor= 1009 AccDes= 0.00D+00 IRadAn=         4 IDoV= 1 UseB2=F ITyADJ=14
 ICtDFT=  3500011 ScaDFX=  1.000000  1.000000  1.000000  1.000000
 FoFCou: FMM=F IPFlag=           0 FMFlag=      100000 FMFlg1=           0
         NFxFlg=           0 DoJE=T BraDBF=F KetDBF=T FulRan=T
         wScrn=  0.000000 ICntrl=       500 IOpCl=  0 I1Cent=   200000004 NGrid=           0
         NMat0=    1 NMatS0=      1 NMatT0=    0 NMatD0=    1 NMtDS0=    0 NMtDT0=    0
 Petite list used in FoFCou.
 Initial guess <Sx>= 0.0000 <Sy>= 0.0000 <Sz>= 0.5000 <S**2>= 0.7500 S= 0.5000
 Requested convergence on RMS density matrix=1.00D-08 within 128 cycles.
 Requested convergence on MAX density matrix=1.00D-06.
 Requested convergence on             energy=1.00D-06.
 No special actions if energy rises.
 Restarting incremental Fock formation.
 SCF Done:  E(UM062X) =  -575.949131972     A.U. after   23 cycles
            NFock= 23  Conv=0.58D-08     -V/T= 2.0034
 <Sx>= 0.0000 <Sy>= 0.0000 <Sz>= 0.5000 <S**2>= 0.7599 S= 0.5049
 <L.S>= 0.000000000000E+00
 Annihilation of the first spin contaminant:
 S**2 before annihilation     0.7599,   after     0.7501

 **********************************************************************

            Population analysis using the SCF density.

 **********************************************************************

 Orbital symmetries:
 Alpha Orbitals:
       Occupied  (A) (A) (A) (A) (A) (A) (A) (A) (A) (A) (A) (A)
                 (A) (A) (A) (A) (A) (A) (A) (A) (A) (A) (A) (A)
                 (A) (A) (A) (A) (A) (A) (A) (A) (A) (A) (A) (A)
                 (A) (A) (A) (A) (A) (A) (A) (A) (A) (A) (A)
       Virtual   (A) (A) (A) (A) (A) (A) (A) (A) (A) (A) (A) (A)
                 (A) (A) (A) (A) (A) (A) (A) (A) (A) (A) (A) (A)
                 (A) (A) (A) (A) (A) (A) (A) (A) (A) (A) (A) (A)
                 (A) (A) (A) (A) (A) (A) (A) (A) (A) (A) (A) (A)
                 (A) (A) (A) (A) (A) (A) (A) (A) (A) (A) (A) (A)
                 (A) (A) (A) (A) (A) (A) (A) (A) (A) (A) (A) (A)
                 (A) (A) (A) (A) (A) (A) (A) (A) (A) (A) (A) (A)
                 (A) (A) (A) (A) (A) (A) (A) (A) (A) (A) (A) (A)
                 (A) (A) (A) (A) (A) (A) (A) (A) (A) (A) (A) (A)
                 (A) (A) (A) (A) (A) (A) (A) (A) (A) (A) (A) (A)
                 (A) (A) (A) (A) (A) (A) (A) (A) (A) (A) (A) (A)
                 (A) (A) (A) (A) (A) (A) (A) (A) (A) (A) (A) (A)
                 (A) (A) (A) (A) (A) (A) (A) (A) (A) (A) (A) (A)
                 (A) (A) (A) (A) (A) (A) (A) (A) (A) (A) (A) (A)
                 (A) (A) (A) (A) (A) (A) (A) (A) (A) (A) (A) (A)
                 (A) (A) (A) (A) (A) (A) (A) (A) (A) (A) (A) (A)
                 (A) (A) (A) (A) (A) (A) (A) (A) (A) (A) (A) (A)
                 (A) (A) (A) (A) (A) (A) (A) (A) (A) (A) (A) (A)
                 (A) (A) (A) (A) (A) (A) (A) (A) (A) (A) (A) (A)
                 (A) (A) (A) (A) (A) (A) (A) (A) (A) (A) (A) (A)
                 (A) (A) (A) (A) (A) (A) (A) (A) (A) (A) (A) (A)
                 (A) (A) (A) (A) (A) (A) (A) (A) (A) (A) (A) (A)
                 (A) (A) (A) (A) (A) (A) (A) (A) (A) (A) (A) (A)
                 (A) (A) (A) (A) (A) (A) (A) (A) (A) (A) (A) (A)
                 (A) (A) (A) (A) (A) (A) (A) (A) (A) (A) (A) (A)
                 (A) (A) (A) (A) (A) (A) (A) (A) (A) (A) (A) (A)
                 (A) (A) (A) (A) (A) (A) (A) (A) (A) (A) (A) (A)
                 (A) (A) (A) (A) (A) (A) (A) (A) (A) (A) (A) (A)
                 (A) (A) (A) (A) (A) (A) (A) (A) (A) (A) (A) (A)
                 (A) (A) (A) (A) (A) (A) (A) (A) (A) (A) (A) (A)
                 (A) (A) (A) (A) (A) (A) (A) (A) (A) (A) (A) (A)
                 (A) (A) (A) (A) (A) (A) (A) (A) (A) (A) (A) (A)
                 (A) (A) (A) (A) (A) (A) (A) (A) (A) (A) (A) (A)
                 (A) (A) (A) (A) (A) (A) (A) (A) (A) (A) (A) (A)
                 (A) (A) (A) (A) (A) (A) (A) (A) (A) (A) (A) (A)
                 (A) (A) (A) (A) (A) (A) (A) (A) (A) (A) (A) (A)
                 (A) (A) (A) (A) (A) (A) (A) (A) (A) (A) (A) (A)
                 (A) (A) (A) (A) (A) (A) (A) (A) (A) (A) (A) (A)
                 (A) (A) (A) (A) (A) (A) (A) (A) (A) (A) (A) (A)
                 (A) (A) (A) (A) (A) (A) (A) (A) (A) (A) (A) (A)
                 (A) (A) (A) (A) (A) (A) (A) (A) (A) (A) (A)
 Beta  Orbitals:
       Occupied  (A) (A) (A) (A) (A) (A) (A) (A) (A) (A) (A) (A)
                 (A) (A) (A) (A) (A) (A) (A) (A) (A) (A) (A) (A)
                 (A) (A) (A) (A) (A) (A) (A) (A) (A) (A) (A) (A)
                 (A) (A) (A) (A) (A) (A) (A) (A) (A) (A)
       Virtual   (A) (A) (A) (A) (A) (A) (A) (A) (A) (A) (A) (A)
                 (A) (A) (A) (A) (A) (A) (A) (A) (A) (A) (A) (A)
                 (A) (A) (A) (A) (A) (A) (A) (A) (A) (A) (A) (A)
                 (A) (A) (A) (A) (A) (A) (A) (A) (A) (A) (A) (A)
                 (A) (A) (A) (A) (A) (A) (A) (A) (A) (A) (A) (A)
                 (A) (A) (A) (A) (A) (A) (A) (A) (A) (A) (A) (A)
                 (A) (A) (A) (A) (A) (A) (A) (A) (A) (A) (A) (A)
                 (A) (A) (A) (A) (A) (A) (A) (A) (A) (A) (A) (A)
                 (A) (A) (A) (A) (A) (A) (A) (A) (A) (A) (A) (A)
                 (A) (A) (A) (A) (A) (A) (A) (A) (A) (A) (A) (A)
                 (A) (A) (A) (A) (A) (A) (A) (A) (A) (A) (A) (A)
                 (A) (A) (A) (A) (A) (A) (A) (A) (A) (A) (A) (A)
                 (A) (A) (A) (A) (A) (A) (A) (A) (A) (A) (A) (A)
                 (A) (A) (A) (A) (A) (A) (A) (A) (A) (A) (A) (A)
                 (A) (A) (A) (A) (A) (A) (A) (A) (A) (A) (A) (A)
                 (A) (A) (A) (A) (A) (A) (A) (A) (A) (A) (A) (A)
                 (A) (A) (A) (A) (A) (A) (A) (A) (A) (A) (A) (A)
                 (A) (A) (A) (A) (A) (A) (A) (A) (A) (A) (A) (A)
                 (A) (A) (A) (A) (A) (A) (A) (A) (A) (A) (A) (A)
                 (A) (A) (A) (A) (A) (A) (A) (A) (A) (A) (A) (A)
                 (A) (A) (A) (A) (A) (A) (A) (A) (A) (A) (A) (A)
                 (A) (A) (A) (A) (A) (A) (A) (A) (A) (A) (A) (A)
                 (A) (A) (A) (A) (A) (A) (A) (A) (A) (A) (A) (A)
                 (A) (A) (A) (A) (A) (A) (A) (A) (A) (A) (A) (A)
                 (A) (A) (A) (A) (A) (A) (A) (A) (A) (A) (A) (A)
                 (A) (A) (A) (A) (A) (A) (A) (A) (A) (A) (A) (A)
                 (A) (A) (A) (A) (A) (A) (A) (A) (A) (A) (A) (A)
                 (A) (A) (A) (A) (A) (A) (A) (A) (A) (A) (A) (A)
                 (A) (A) (A) (A) (A) (A) (A) (A) (A) (A) (A) (A)
                 (A) (A) (A) (A) (A) (A) (A) (A) (A) (A) (A) (A)
                 (A) (A) (A) (A) (A) (A) (A) (A) (A) (A) (A) (A)
                 (A) (A) (A) (A) (A) (A) (A) (A) (A) (A) (A) (A)
                 (A) (A) (A) (A) (A) (A) (A) (A) (A) (A) (A) (A)
                 (A) (A) (A) (A) (A) (A) (A) (A) (A) (A) (A) (A)
                 (A) (A) (A) (A) (A) (A) (A) (A) (A) (A) (A) (A)
                 (A) (A) (A) (A) (A) (A) (A) (A) (A) (A) (A) (A)
                 (A) (A) (A) (A) (A) (A) (A) (A) (A) (A) (A) (A)
                 (A) (A) (A) (A) (A) (A) (A) (A) (A) (A) (A) (A)
                 (A) (A) (A) (A) (A) (A) (A) (A) (A) (A) (A) (A)
                 (A) (A) (A) (A) (A) (A) (A) (A) (A) (A) (A) (A)
                 (A) (A) (A) (A) (A) (A) (A) (A) (A) (A) (A) (A)
 The electronic state is 2-A.
 Alpha  occ. eigenvalues --  -19.72692 -19.72537 -10.55633 -10.54845 -10.54673
 Alpha  occ. eigenvalues --  -10.54541 -10.54503 -10.54461 -10.54356 -10.54169
 Alpha  occ. eigenvalues --  -10.54070 -10.54002 -10.53700  -1.26679  -1.06401
 Alpha  occ. eigenvalues --   -0.99012  -0.92743  -0.88968  -0.84274  -0.83013
 Alpha  occ. eigenvalues --   -0.78195  -0.71411  -0.69702  -0.68193  -0.64157
 Alpha  occ. eigenvalues --   -0.59223  -0.58718  -0.57819  -0.56565  -0.55638
 Alpha  occ. eigenvalues --   -0.51661  -0.50629  -0.50234  -0.48343  -0.47656
 Alpha  occ. eigenvalues --   -0.46090  -0.45906  -0.43326  -0.42763  -0.41557
 Alpha  occ. eigenvalues --   -0.39612  -0.39346  -0.38718  -0.35702  -0.34156
 Alpha  occ. eigenvalues --   -0.30248  -0.25983
 Alpha virt. eigenvalues --   -0.02344   0.00324   0.01234   0.01334   0.01934
 Alpha virt. eigenvalues --    0.02653   0.03540   0.04159   0.04252   0.05140
 Alpha virt. eigenvalues --    0.05610   0.06269   0.06664   0.07715   0.08161
 Alpha virt. eigenvalues --    0.08599   0.09068   0.10006   0.10119   0.11316
 Alpha virt. eigenvalues --    0.11632   0.12351   0.12646   0.13949   0.14091
 Alpha virt. eigenvalues --    0.14751   0.14858   0.15929   0.16240   0.16522
 Alpha virt. eigenvalues --    0.16758   0.17589   0.18429   0.18703   0.19114
 Alpha virt. eigenvalues --    0.19404   0.19761   0.20321   0.20632   0.21287
 Alpha virt. eigenvalues --    0.21939   0.22491   0.22636   0.22891   0.23237
 Alpha virt. eigenvalues --    0.23485   0.23584   0.23861   0.25231   0.25863
 Alpha virt. eigenvalues --    0.26421   0.26638   0.26980   0.27230   0.27762
 Alpha virt. eigenvalues --    0.28126   0.29042   0.29446   0.30377   0.31470
 Alpha virt. eigenvalues --    0.31559   0.32213   0.32529   0.33583   0.34352
 Alpha virt. eigenvalues --    0.35256   0.35553   0.36679   0.37535   0.39114
 Alpha virt. eigenvalues --    0.39915   0.41639   0.43439   0.45900   0.46959
 Alpha virt. eigenvalues --    0.47897   0.50598   0.51260   0.51942   0.52662
 Alpha virt. eigenvalues --    0.53547   0.54132   0.54503   0.55177   0.55526
 Alpha virt. eigenvalues --    0.56182   0.56753   0.57017   0.57914   0.58443
 Alpha virt. eigenvalues --    0.58499   0.59810   0.60433   0.60728   0.61102
 Alpha virt. eigenvalues --    0.62287   0.62689   0.63126   0.64684   0.64956
 Alpha virt. eigenvalues --    0.65926   0.67725   0.68115   0.68260   0.68696
 Alpha virt. eigenvalues --    0.69063   0.69324   0.69870   0.70023   0.70686
 Alpha virt. eigenvalues --    0.71867   0.72325   0.72898   0.74086   0.74229
 Alpha virt. eigenvalues --    0.74274   0.74649   0.75857   0.76061   0.76755
 Alpha virt. eigenvalues --    0.77226   0.78336   0.78968   0.79994   0.80785
 Alpha virt. eigenvalues --    0.82044   0.83328   0.85221   0.86200   0.86394
 Alpha virt. eigenvalues --    0.86795   0.88545   0.89324   0.90112   0.90657
 Alpha virt. eigenvalues --    0.91174   0.92366   0.94657   0.95527   0.95965
 Alpha virt. eigenvalues --    0.97175   0.99333   1.00131   1.01274   1.02388
 Alpha virt. eigenvalues --    1.03918   1.04354   1.04565   1.05774   1.06411
 Alpha virt. eigenvalues --    1.07057   1.07713   1.09741   1.10542   1.11780
 Alpha virt. eigenvalues --    1.12295   1.13454   1.14304   1.15516   1.15836
 Alpha virt. eigenvalues --    1.17052   1.19035   1.19224   1.20130   1.21118
 Alpha virt. eigenvalues --    1.21934   1.22317   1.24376   1.26482   1.27100
 Alpha virt. eigenvalues --    1.28316   1.29127   1.29755   1.30463   1.32297
 Alpha virt. eigenvalues --    1.33497   1.33915   1.34818   1.35328   1.36030
 Alpha virt. eigenvalues --    1.36795   1.37266   1.37695   1.38420   1.40121
 Alpha virt. eigenvalues --    1.40764   1.41335   1.41835   1.43692   1.43991
 Alpha virt. eigenvalues --    1.44425   1.45180   1.45962   1.47266   1.48602
 Alpha virt. eigenvalues --    1.49229   1.49464   1.52093   1.53306   1.53727
 Alpha virt. eigenvalues --    1.54500   1.55388   1.56479   1.59329   1.59889
 Alpha virt. eigenvalues --    1.63212   1.64471   1.68469   1.69029   1.71218
 Alpha virt. eigenvalues --    1.72464   1.73990   1.75636   1.76436   1.76799
 Alpha virt. eigenvalues --    1.77628   1.78366   1.79217   1.81412   1.83053
 Alpha virt. eigenvalues --    1.86211   1.86531   1.89716   1.92753   1.93488
 Alpha virt. eigenvalues --    1.94397   2.02334   2.02947   2.05221   2.07268
 Alpha virt. eigenvalues --    2.10027   2.14489   2.21793   2.25565   2.29596
 Alpha virt. eigenvalues --    2.33500   2.35799   2.40837   2.44372   2.48831
 Alpha virt. eigenvalues --    2.54607   2.56477   2.56709   2.59707   2.63483
 Alpha virt. eigenvalues --    2.64454   2.65120   2.68099   2.69662   2.69887
 Alpha virt. eigenvalues --    2.70742   2.74861   2.75513   2.75676   2.76632
 Alpha virt. eigenvalues --    2.77089   2.77526   2.77816   2.78000   2.80284
 Alpha virt. eigenvalues --    2.81945   2.82034   2.83307   2.84485   2.84716
 Alpha virt. eigenvalues --    2.84835   2.86253   2.87261   2.87565   2.87916
 Alpha virt. eigenvalues --    2.88926   2.89458   2.90315   2.91019   2.91214
 Alpha virt. eigenvalues --    2.91618   2.92403   2.93083   2.93938   2.97000
 Alpha virt. eigenvalues --    3.00319   3.00927   3.03662   3.04095   3.06610
 Alpha virt. eigenvalues --    3.07289   3.08975   3.10073   3.12454   3.12707
 Alpha virt. eigenvalues --    3.13291   3.14163   3.14326   3.15165   3.15432
 Alpha virt. eigenvalues --    3.15938   3.18069   3.18432   3.18846   3.20108
 Alpha virt. eigenvalues --    3.21302   3.22225   3.22746   3.23446   3.24550
 Alpha virt. eigenvalues --    3.25858   3.27003   3.27673   3.28775   3.28908
 Alpha virt. eigenvalues --    3.31317   3.32176   3.32700   3.34745   3.35248
 Alpha virt. eigenvalues --    3.35493   3.36170   3.39588   3.40166   3.42014
 Alpha virt. eigenvalues --    3.42889   3.44195   3.44937   3.46612   3.47121
 Alpha virt. eigenvalues --    3.47404   3.50351   3.51188   3.51595   3.53047
 Alpha virt. eigenvalues --    3.54392   3.54869   3.56183   3.56256   3.56861
 Alpha virt. eigenvalues --    3.58465   3.59498   3.60156   3.62828   3.66182
 Alpha virt. eigenvalues --    3.67381   3.68000   3.69511   3.69709   3.70922
 Alpha virt. eigenvalues --    3.74750   3.74920   3.75547   3.76154   3.76785
 Alpha virt. eigenvalues --    3.77426   3.78538   3.79376   3.79403   3.81846
 Alpha virt. eigenvalues --    3.84095   3.85766   3.86770   3.88298   3.89662
 Alpha virt. eigenvalues --    3.91018   3.94666   3.95634   3.96115   3.98931
 Alpha virt. eigenvalues --    3.99664   4.00034   4.00736   4.04122   4.06434
 Alpha virt. eigenvalues --    4.06588   4.08094   4.08126   4.08869   4.10756
 Alpha virt. eigenvalues --    4.12875   4.14467   4.17072   4.18461   4.19223
 Alpha virt. eigenvalues --    4.21950   4.23160   4.24336   4.24940   4.27998
 Alpha virt. eigenvalues --    4.29307   4.30318   4.32171   4.32415   4.34332
 Alpha virt. eigenvalues --    4.35719   4.37157   4.38013   4.38662   4.39840
 Alpha virt. eigenvalues --    4.40038   4.40934   4.43579   4.44459   4.45833
 Alpha virt. eigenvalues --    4.47804   4.48638   4.49256   4.50754   4.52215
 Alpha virt. eigenvalues --    4.53292   4.53470   4.56881   4.59016   4.59412
 Alpha virt. eigenvalues --    4.60767   4.61153   4.62994   4.65872   4.69074
 Alpha virt. eigenvalues --    4.71025   4.74661   4.74982   4.80144   4.80338
 Alpha virt. eigenvalues --    4.81147   4.86464   4.88679   4.89714   4.94800
 Alpha virt. eigenvalues --    4.96819   4.98177   4.99231   5.00410   5.01628
 Alpha virt. eigenvalues --    5.03994   5.07236   5.08400   5.10697   5.13385
 Alpha virt. eigenvalues --    5.14279   5.16970   5.18799   5.21313   5.24557
 Alpha virt. eigenvalues --    5.25848   5.28218   5.30111   5.32473   5.40735
 Alpha virt. eigenvalues --    5.45896   5.48857   5.50119   5.54557   5.54792
 Alpha virt. eigenvalues --    5.58422   5.59696   5.67755   5.69369   5.73696
 Alpha virt. eigenvalues --    5.75050   5.77077   5.83358   5.85931   5.91702
 Alpha virt. eigenvalues --    5.98435   6.04716   6.16069   6.36081   6.46300
 Alpha virt. eigenvalues --    6.56394   6.68259   6.70679   6.85320   6.89922
 Alpha virt. eigenvalues --    6.94153   7.00657   7.17860   7.27514   7.40423
 Alpha virt. eigenvalues --    7.42784   7.82774   8.09607  23.91183  24.22555
 Alpha virt. eigenvalues --   24.52434  24.59944  24.63411  24.68031  24.70087
 Alpha virt. eigenvalues --   24.79212  24.86032  25.10006  25.26962  49.96671
 Alpha virt. eigenvalues --   49.98385
  Beta  occ. eigenvalues --  -19.72169 -19.71185 -10.55617 -10.54832 -10.54670
  Beta  occ. eigenvalues --  -10.54540 -10.54502 -10.54460 -10.54356 -10.54169
  Beta  occ. eigenvalues --  -10.54070 -10.53998 -10.53505  -1.23565  -1.02217
  Beta  occ. eigenvalues --   -0.98940  -0.92679  -0.88757  -0.84256  -0.82593
  Beta  occ. eigenvalues --   -0.77590  -0.71312  -0.69610  -0.67357  -0.63208
  Beta  occ. eigenvalues --   -0.58951  -0.58090  -0.57225  -0.56330  -0.51547
  Beta  occ. eigenvalues --   -0.50584  -0.50161  -0.48241  -0.47718  -0.46730
  Beta  occ. eigenvalues --   -0.45957  -0.45529  -0.43170  -0.40294  -0.39602
  Beta  occ. eigenvalues --   -0.39329  -0.38569  -0.36548  -0.34137  -0.30241
  Beta  occ. eigenvalues --   -0.25972
  Beta virt. eigenvalues --   -0.11354  -0.02330   0.00796   0.01257   0.01464
  Beta virt. eigenvalues --    0.01997   0.02920   0.03697   0.04262   0.04581
  Beta virt. eigenvalues --    0.05256   0.05867   0.06423   0.07003   0.07743
  Beta virt. eigenvalues --    0.08193   0.08790   0.09204   0.10086   0.10202
  Beta virt. eigenvalues --    0.11313   0.11673   0.12465   0.12777   0.14011
  Beta virt. eigenvalues --    0.14107   0.14843   0.14882   0.15981   0.16221
  Beta virt. eigenvalues --    0.16600   0.16864   0.17703   0.18508   0.18799
  Beta virt. eigenvalues --    0.19169   0.19447   0.19830   0.20498   0.20674
  Beta virt. eigenvalues --    0.21378   0.22101   0.22493   0.22695   0.23005
  Beta virt. eigenvalues --    0.23310   0.23550   0.23619   0.23878   0.25242
  Beta virt. eigenvalues --    0.25893   0.26480   0.26739   0.27029   0.27257
  Beta virt. eigenvalues --    0.27817   0.28146   0.29224   0.29897   0.30435
  Beta virt. eigenvalues --    0.31564   0.31757   0.32288   0.32733   0.33748
  Beta virt. eigenvalues --    0.34296   0.35423   0.35630   0.37001   0.37592
  Beta virt. eigenvalues --    0.39239   0.39953   0.41720   0.43654   0.46005
  Beta virt. eigenvalues --    0.47112   0.47799   0.50761   0.51290   0.52098
  Beta virt. eigenvalues --    0.52689   0.53516   0.54194   0.54561   0.55216
  Beta virt. eigenvalues --    0.55567   0.56219   0.56761   0.57015   0.58009
  Beta virt. eigenvalues --    0.58464   0.58632   0.59929   0.60461   0.60836
  Beta virt. eigenvalues --    0.61133   0.62280   0.62826   0.63169   0.64686
  Beta virt. eigenvalues --    0.64981   0.65939   0.67775   0.68160   0.68290
  Beta virt. eigenvalues --    0.68711   0.69077   0.69353   0.69899   0.70120
  Beta virt. eigenvalues --    0.70775   0.71891   0.72485   0.72924   0.74154
  Beta virt. eigenvalues --    0.74243   0.74570   0.74662   0.75930   0.76082
  Beta virt. eigenvalues --    0.76783   0.77296   0.78493   0.78972   0.80043
  Beta virt. eigenvalues --    0.80843   0.82091   0.83343   0.85256   0.86253
  Beta virt. eigenvalues --    0.86420   0.86867   0.88711   0.89373   0.90188
  Beta virt. eigenvalues --    0.90802   0.91224   0.92759   0.94688   0.95550
  Beta virt. eigenvalues --    0.96312   0.97400   0.99351   1.00311   1.01399
  Beta virt. eigenvalues --    1.02487   1.04145   1.04415   1.04654   1.05910
  Beta virt. eigenvalues --    1.06977   1.07599   1.08121   1.09763   1.11139
  Beta virt. eigenvalues --    1.12220   1.12357   1.13461   1.14557   1.15703
  Beta virt. eigenvalues --    1.16951   1.17338   1.19280   1.19355   1.20285
  Beta virt. eigenvalues --    1.21158   1.22084   1.22620   1.24785   1.26629
  Beta virt. eigenvalues --    1.27199   1.28423   1.29162   1.29937   1.30645
  Beta virt. eigenvalues --    1.32554   1.33550   1.33972   1.35029   1.35375
  Beta virt. eigenvalues --    1.36098   1.36862   1.37360   1.37832   1.38447
  Beta virt. eigenvalues --    1.40159   1.40942   1.41397   1.41952   1.43749
  Beta virt. eigenvalues --    1.44117   1.44729   1.45340   1.46358   1.47577
  Beta virt. eigenvalues --    1.48681   1.49491   1.49589   1.52167   1.53397
  Beta virt. eigenvalues --    1.54153   1.55051   1.55968   1.56607   1.59627
  Beta virt. eigenvalues --    1.60498   1.63822   1.64846   1.68599   1.69244
  Beta virt. eigenvalues --    1.71242   1.72522   1.74066   1.75820   1.76453
  Beta virt. eigenvalues --    1.76915   1.77658   1.78379   1.79543   1.81638
  Beta virt. eigenvalues --    1.83710   1.86776   1.87000   1.89885   1.92940
  Beta virt. eigenvalues --    1.93549   1.94473   2.02494   2.03375   2.05249
  Beta virt. eigenvalues --    2.07319   2.10233   2.14759   2.22029   2.26177
  Beta virt. eigenvalues --    2.29818   2.34564   2.36096   2.41302   2.44604
  Beta virt. eigenvalues --    2.48851   2.54612   2.56434   2.56724   2.59908
  Beta virt. eigenvalues --    2.63502   2.64473   2.65137   2.68061   2.69688
  Beta virt. eigenvalues --    2.69926   2.70762   2.74919   2.75498   2.75680
  Beta virt. eigenvalues --    2.76716   2.77093   2.77584   2.77844   2.78101
  Beta virt. eigenvalues --    2.80308   2.82040   2.82084   2.83326   2.84508
  Beta virt. eigenvalues --    2.84734   2.84932   2.86257   2.87291   2.87597
  Beta virt. eigenvalues --    2.87919   2.88927   2.89482   2.90422   2.91004
  Beta virt. eigenvalues --    2.91184   2.91543   2.92411   2.93096   2.93951
  Beta virt. eigenvalues --    2.97089   3.00340   3.00982   3.03716   3.04114
  Beta virt. eigenvalues --    3.06710   3.07427   3.09159   3.10126   3.12568
  Beta virt. eigenvalues --    3.12742   3.13357   3.14202   3.14366   3.15194
  Beta virt. eigenvalues --    3.15405   3.15972   3.18106   3.18467   3.18913
  Beta virt. eigenvalues --    3.20137   3.21380   3.22252   3.22906   3.23450
  Beta virt. eigenvalues --    3.24561   3.25945   3.26991   3.27805   3.28829
  Beta virt. eigenvalues --    3.29021   3.31400   3.32230   3.32710   3.34802
  Beta virt. eigenvalues --    3.35337   3.35562   3.36181   3.39591   3.40216
  Beta virt. eigenvalues --    3.42087   3.42909   3.44251   3.44966   3.46636
  Beta virt. eigenvalues --    3.47198   3.47481   3.50379   3.51169   3.51615
  Beta virt. eigenvalues --    3.53143   3.54453   3.54911   3.56201   3.56402
  Beta virt. eigenvalues --    3.57274   3.58534   3.59854   3.60401   3.63086
  Beta virt. eigenvalues --    3.66210   3.67745   3.68140   3.69561   3.69769
  Beta virt. eigenvalues --    3.70873   3.74843   3.74977   3.75577   3.76225
  Beta virt. eigenvalues --    3.76810   3.77711   3.78592   3.79435   3.79568
  Beta virt. eigenvalues --    3.81911   3.84123   3.85947   3.86914   3.88282
  Beta virt. eigenvalues --    3.89752   3.91056   3.94788   3.95662   3.96132
  Beta virt. eigenvalues --    3.99041   3.99956   4.00188   4.00773   4.04126
  Beta virt. eigenvalues --    4.06472   4.06723   4.08098   4.08184   4.08889
  Beta virt. eigenvalues --    4.10785   4.13067   4.14430   4.17089   4.18519
  Beta virt. eigenvalues --    4.19259   4.21976   4.23104   4.24361   4.25022
  Beta virt. eigenvalues --    4.28060   4.29355   4.30389   4.32252   4.32645
  Beta virt. eigenvalues --    4.34450   4.35874   4.37229   4.38110   4.38694
  Beta virt. eigenvalues --    4.39972   4.40057   4.40997   4.43644   4.44498
  Beta virt. eigenvalues --    4.45897   4.47858   4.48673   4.49275   4.50796
  Beta virt. eigenvalues --    4.52254   4.53326   4.53495   4.56959   4.59050
  Beta virt. eigenvalues --    4.59505   4.60879   4.61183   4.63277   4.65938
  Beta virt. eigenvalues --    4.69681   4.71360   4.74835   4.75370   4.80316
  Beta virt. eigenvalues --    4.80444   4.81241   4.86892   4.88757   4.90433
  Beta virt. eigenvalues --    4.95030   4.96898   4.98297   4.99255   5.02559
  Beta virt. eigenvalues --    5.03830   5.05533   5.08434   5.08835   5.11365
  Beta virt. eigenvalues --    5.14052   5.14534   5.17067   5.20020   5.22478
  Beta virt. eigenvalues --    5.24647   5.26654   5.29873   5.30943   5.33083
  Beta virt. eigenvalues --    5.40878   5.46329   5.49117   5.50193   5.54762
  Beta virt. eigenvalues --    5.55340   5.59198   5.59757   5.67966   5.69631
  Beta virt. eigenvalues --    5.73725   5.75051   5.77110   5.83409   5.86282
  Beta virt. eigenvalues --    5.91741   5.98446   6.04746   6.16101   6.36665
  Beta virt. eigenvalues --    6.46327   6.56426   6.75458   6.78162   6.87539
  Beta virt. eigenvalues --    6.92159   6.96249   7.02574   7.18437   7.28799
  Beta virt. eigenvalues --    7.42667   7.47523   7.84084   8.11572  23.91182
  Beta virt. eigenvalues --   24.22556  24.52446  24.59947  24.63413  24.68032
  Beta virt. eigenvalues --   24.70093  24.79214  24.86031  25.10008  25.26962
  Beta virt. eigenvalues --   49.96363  49.97956
          Condensed to atoms (all electrons):
               1          2          3          4          5          6
     1  C    8.097726   0.182239  -0.579967   0.355505  -0.131155  -0.036243
     2  C    0.182239   6.061616  -0.279798   0.017107   0.726328   0.002019
     3  C   -0.579967  -0.279798   8.211224  -0.037740  -1.720325   0.319574
     4  H    0.355505   0.017107  -0.037740   0.483873   0.030326  -0.006335
     5  C   -0.131155   0.726328  -1.720325   0.030326  20.149048   0.034768
     6  H   -0.036243   0.002019   0.319574  -0.006335   0.034768   0.476982
     7  C   -0.833871   0.920555   0.690129   0.006592  -0.973219  -0.023185
     8  H    0.017220   0.365395   0.028073  -0.006725  -0.035384  -0.000118
     9  C   -0.154297  -0.799875   0.414033  -0.000128  -2.910296  -0.024117
    10  H    0.004904   0.004625  -0.002038  -0.000111  -0.058109   0.000038
    11  C   -0.454109  -0.223688  -0.284521   0.001010  -1.985954   0.026021
    12  C    0.086448  -0.457090   0.168880   0.006795  -6.898648  -0.002665
    13  C   -0.468775   0.144688  -0.988836  -0.000636  -4.792833   0.020992
    14  C    0.301221  -0.303747   0.426143  -0.001313   3.307532   0.001389
    15  H    0.001499   0.008158   0.008714  -0.000003   0.011915   0.000014
    16  H   -0.000213  -0.000890  -0.003094  -0.000001   0.000851  -0.000010
    17  H   -0.001476   0.001310   0.000352   0.000000  -0.060532  -0.000002
    18  C    0.048756  -0.015467  -0.273142   0.002160   0.623069   0.046136
    19  H    0.001683  -0.000964  -0.003511   0.000020  -0.003103  -0.003842
    20  H    0.013058  -0.000829   0.017694   0.000017  -0.010170  -0.003919
    21  H   -0.008219  -0.000234  -0.041684  -0.000004  -0.061772   0.000979
    22  O   -0.001984   0.000199   0.026613   0.000001   0.072569  -0.000163
    23  O   -0.000816  -0.000048  -0.004771  -0.000000  -0.010074   0.000025
    24  H   -0.000004   0.000002   0.000194   0.000000   0.000890   0.000000
               7          8          9         10         11         12
     1  C   -0.833871   0.017220  -0.154297   0.004904  -0.454109   0.086448
     2  C    0.920555   0.365395  -0.799875   0.004625  -0.223688  -0.457090
     3  C    0.690129   0.028073   0.414033  -0.002038  -0.284521   0.168880
     4  H    0.006592  -0.006725  -0.000128  -0.000111   0.001010   0.006795
     5  C   -0.973219  -0.035384  -2.910296  -0.058109  -1.985954  -6.898648
     6  H   -0.023185  -0.000118  -0.024117   0.000038   0.026021  -0.002665
     7  C    6.967279  -0.056322  -0.267402   0.430990  -0.458060  -0.201633
     8  H   -0.056322   0.485472   0.041952  -0.006423   0.007614   0.010900
     9  C   -0.267402   0.041952   9.888682  -0.108129   0.761621  -0.769525
    10  H    0.430990  -0.006423  -0.108129   0.485230  -0.006009   0.081827
    11  C   -0.458060   0.007614   0.761621  -0.006009   8.694357   1.833947
    12  C   -0.201633   0.010900  -0.769525   0.081827   1.833947  12.154405
    13  C    0.197742   0.000417   1.904435   0.011549   0.106136   1.406693
    14  C   -0.366029  -0.001325  -0.804521   0.009788  -1.027850  -1.729381
    15  H    0.057072  -0.000015  -0.058861   0.002503  -0.036265   0.337717
    16  H    0.003088   0.000000  -0.012661  -0.000003  -0.077779   0.022306
    17  H    0.007067  -0.000001   0.022556  -0.000009   0.024649   0.038384
    18  C   -0.066433   0.000136  -1.284906  -0.001643  -1.092462  -0.023200
    19  H   -0.000382   0.000000  -0.000952  -0.000001  -0.044701  -0.000614
    20  H   -0.001535   0.000000  -0.001694  -0.000001  -0.043445   0.002373
    21  H    0.001897   0.000000   0.027808   0.000000  -0.024424   0.019984
    22  O   -0.000199   0.000000  -0.003294   0.000000   0.228342  -0.013569
    23  O    0.000111   0.000000   0.001968  -0.000000  -0.042903   0.002788
    24  H    0.000002  -0.000000   0.000135   0.000000   0.011442  -0.000066
              13         14         15         16         17         18
     1  C   -0.468775   0.301221   0.001499  -0.000213  -0.001476   0.048756
     2  C    0.144688  -0.303747   0.008158  -0.000890   0.001310  -0.015467
     3  C   -0.988836   0.426143   0.008714  -0.003094   0.000352  -0.273142
     4  H   -0.000636  -0.001313  -0.000003  -0.000001   0.000000   0.002160
     5  C   -4.792833   3.307532   0.011915   0.000851  -0.060532   0.623069
     6  H    0.020992   0.001389   0.000014  -0.000010  -0.000002   0.046136
     7  C    0.197742  -0.366029   0.057072   0.003088   0.007067  -0.066433
     8  H    0.000417  -0.001325  -0.000015   0.000000  -0.000001   0.000136
     9  C    1.904435  -0.804521  -0.058861  -0.012661   0.022556  -1.284906
    10  H    0.011549   0.009788   0.002503  -0.000003  -0.000009  -0.001643
    11  C    0.106136  -1.027850  -0.036265  -0.077779   0.024649  -1.092462
    12  C    1.406693  -1.729381   0.337717   0.022306   0.038384  -0.023200
    13  C   11.727472  -2.496452   0.001739   0.402597   0.041310  -0.793435
    14  C   -2.496452   8.557971   0.038017   0.008748   0.301404   0.254495
    15  H    0.001739   0.038017   0.484334  -0.000124  -0.007051  -0.001907
    16  H    0.402597   0.008748  -0.000124   0.463529  -0.006121   0.021686
    17  H    0.041310   0.301404  -0.007051  -0.006121   0.484508   0.003340
    18  C   -0.793435   0.254495  -0.001907   0.021686   0.003340   8.581551
    19  H    0.000111   0.000669  -0.000001  -0.000063   0.000009   0.402666
    20  H   -0.016843   0.001059  -0.000002   0.000139   0.000008   0.394223
    21  H    0.096297  -0.007655   0.000009   0.004288  -0.000108   0.164857
    22  O   -0.212997   0.015019  -0.000005  -0.000224   0.000055  -0.108785
    23  O    0.038764  -0.000309  -0.000000   0.000483  -0.000003   0.080583
    24  H   -0.004695  -0.000600   0.000000   0.000013   0.000000  -0.010675
              19         20         21         22         23         24
     1  C    0.001683   0.013058  -0.008219  -0.001984  -0.000816  -0.000004
     2  C   -0.000964  -0.000829  -0.000234   0.000199  -0.000048   0.000002
     3  C   -0.003511   0.017694  -0.041684   0.026613  -0.004771   0.000194
     4  H    0.000020   0.000017  -0.000004   0.000001  -0.000000   0.000000
     5  C   -0.003103  -0.010170  -0.061772   0.072569  -0.010074   0.000890
     6  H   -0.003842  -0.003919   0.000979  -0.000163   0.000025   0.000000
     7  C   -0.000382  -0.001535   0.001897  -0.000199   0.000111   0.000002
     8  H    0.000000   0.000000   0.000000   0.000000   0.000000  -0.000000
     9  C   -0.000952  -0.001694   0.027808  -0.003294   0.001968   0.000135
    10  H   -0.000001  -0.000001   0.000000   0.000000  -0.000000   0.000000
    11  C   -0.044701  -0.043445  -0.024424   0.228342  -0.042903   0.011442
    12  C   -0.000614   0.002373   0.019984  -0.013569   0.002788  -0.000066
    13  C    0.000111  -0.016843   0.096297  -0.212997   0.038764  -0.004695
    14  C    0.000669   0.001059  -0.007655   0.015019  -0.000309  -0.000600
    15  H   -0.000001  -0.000002   0.000009  -0.000005  -0.000000   0.000000
    16  H   -0.000063   0.000139   0.004288  -0.000224   0.000483   0.000013
    17  H    0.000009   0.000008  -0.000108   0.000055  -0.000003   0.000000
    18  C    0.402666   0.394223   0.164857  -0.108785   0.080583  -0.010675
    19  H    0.524168  -0.047069  -0.018127   0.008076  -0.000263  -0.000106
    20  H   -0.047069   0.527058  -0.015018   0.002106  -0.003027   0.000483
    21  H   -0.018127  -0.015018   0.466478  -0.193156   0.002639  -0.002474
    22  O    0.008076   0.002106  -0.193156   8.452100   0.027705  -0.020269
    23  O   -0.000263  -0.003027   0.002639   0.027705   7.913177   0.233367
    24  H   -0.000106   0.000483  -0.002474  -0.020269   0.233367   0.515067
          Atomic-Atomic Spin Densities.
               1          2          3          4          5          6
     1  C   -0.002227  -0.037162  -0.027254  -0.000997  -0.187306   0.002515
     2  C   -0.037162  -0.013604   0.036190  -0.000115   0.009059   0.000469
     3  C   -0.027254   0.036190  -0.053565   0.000766   0.013711   0.000371
     4  H   -0.000997  -0.000115   0.000766   0.000002   0.000145   0.000019
     5  C   -0.187306   0.009059   0.013711   0.000145  -0.775061   0.000544
     6  H    0.002515   0.000469   0.000371   0.000019   0.000544  -0.001026
     7  C    0.020862  -0.013979   0.026771  -0.000080   0.116410  -0.000014
     8  H    0.000090   0.000034  -0.000360  -0.000002   0.000412   0.000000
     9  C    0.089196   0.028435   0.013624   0.000139   0.337725  -0.000460
    10  H   -0.000362  -0.000223  -0.000080   0.000001   0.000884  -0.000000
    11  C    0.068858   0.014664  -0.046334   0.000044   0.104450  -0.001372
    12  C    0.025771  -0.016761   0.019689   0.000070   0.349716  -0.000177
    13  C    0.072965   0.000612   0.073434   0.000001   0.396285  -0.000829
    14  C    0.013127  -0.000527  -0.008900  -0.000028  -0.149574   0.000041
    15  H   -0.000069   0.000041   0.000035   0.000000   0.000530  -0.000000
    16  H   -0.000095   0.000011  -0.000575  -0.000000  -0.003287   0.000001
    17  H   -0.000023  -0.000001   0.000028   0.000000   0.000561   0.000000
    18  C   -0.037850  -0.007108  -0.048445   0.000035  -0.222788  -0.001640
    19  H   -0.001540  -0.000164  -0.000817  -0.000001   0.000271   0.000201
    20  H   -0.003295   0.000122  -0.003945   0.000003  -0.000569   0.000020
    21  H    0.001130  -0.000233   0.000545  -0.000001  -0.015978   0.000072
    22  O   -0.000164   0.000232  -0.000595   0.000001   0.018327  -0.000084
    23  O    0.000475   0.000016   0.002611  -0.000000   0.000822   0.000002
    24  H   -0.000007   0.000000  -0.000055   0.000000  -0.000013   0.000000
               7          8          9         10         11         12
     1  C    0.020862   0.000090   0.089196  -0.000362   0.068858   0.025771
     2  C   -0.013979   0.000034   0.028435  -0.000223   0.014664  -0.016761
     3  C    0.026771  -0.000360   0.013624  -0.000080  -0.046334   0.019689
     4  H   -0.000080  -0.000002   0.000139   0.000001   0.000044   0.000070
     5  C    0.116410   0.000412   0.337725   0.000884   0.104450   0.349716
     6  H   -0.000014   0.000000  -0.000460  -0.000000  -0.001372  -0.000177
     7  C   -0.028755   0.000229  -0.008901  -0.001025  -0.006961  -0.084015
     8  H    0.000229   0.000012  -0.000160  -0.000008  -0.000067  -0.000163
     9  C   -0.008901  -0.000160  -0.220578   0.000397  -0.065842  -0.068530
    10  H   -0.001025  -0.000008   0.000397   0.000160   0.000168  -0.000116
    11  C   -0.006961  -0.000067  -0.065842   0.000168   0.219850  -0.011438
    12  C   -0.084015  -0.000163  -0.068530  -0.000116  -0.011438  -0.154418
    13  C   -0.076526  -0.000044  -0.222043   0.000256   0.068966  -0.258221
    14  C    0.045107   0.000022   0.027594   0.000036  -0.289970   0.130856
    15  H   -0.000067  -0.000000   0.000447  -0.000002  -0.000124  -0.001196
    16  H    0.000234   0.000000   0.000606   0.000000  -0.001794   0.001771
    17  H   -0.000175  -0.000000  -0.000087   0.000000   0.001244  -0.001073
    18  C    0.010527   0.000012   0.088378   0.000065  -0.097808   0.070192
    19  H    0.000399   0.000000   0.002027  -0.000000   0.002603   0.000356
    20  H   -0.000286  -0.000000   0.001699   0.000000   0.013761  -0.000040
    21  H    0.001022   0.000000   0.006686  -0.000000  -0.043842   0.005082
    22  O   -0.000979  -0.000000  -0.007579   0.000000   0.031940  -0.004884
    23  O   -0.000015   0.000000  -0.000850  -0.000000  -0.005349  -0.000224
    24  H    0.000000  -0.000000   0.000011   0.000000   0.000028   0.000000
              13         14         15         16         17         18
     1  C    0.072965   0.013127  -0.000069  -0.000095  -0.000023  -0.037850
     2  C    0.000612  -0.000527   0.000041   0.000011  -0.000001  -0.007108
     3  C    0.073434  -0.008900   0.000035  -0.000575   0.000028  -0.048445
     4  H    0.000001  -0.000028   0.000000  -0.000000   0.000000   0.000035
     5  C    0.396285  -0.149574   0.000530  -0.003287   0.000561  -0.222788
     6  H   -0.000829   0.000041  -0.000000   0.000001   0.000000  -0.001640
     7  C   -0.076526   0.045107  -0.000067   0.000234  -0.000175   0.010527
     8  H   -0.000044   0.000022  -0.000000   0.000000  -0.000000   0.000012
     9  C   -0.222043   0.027594   0.000447   0.000606  -0.000087   0.088378
    10  H    0.000256   0.000036  -0.000002   0.000000   0.000000   0.000065
    11  C    0.068966  -0.289970  -0.000124  -0.001794   0.001244  -0.097808
    12  C   -0.258221   0.130856  -0.001196   0.001771  -0.001073   0.070192
    13  C   -0.160701  -0.109274   0.000330   0.005659   0.001390   0.256478
    14  C   -0.109274   0.336612   0.000036  -0.002150  -0.001867   0.012508
    15  H    0.000330   0.000036   0.000105  -0.000001   0.000002  -0.000002
    16  H    0.005659  -0.002150  -0.000001  -0.001879   0.000060  -0.000503
    17  H    0.001390  -0.001867   0.000002   0.000060  -0.000121   0.000024
    18  C    0.256478   0.012508  -0.000002  -0.000503   0.000024   0.195946
    19  H    0.001887   0.000653   0.000000   0.000027  -0.000000  -0.005734
    20  H    0.000692  -0.004181   0.000000  -0.000052   0.000001  -0.007007
    21  H    0.041946   0.018767  -0.000000   0.001023  -0.000016   0.019759
    22  O   -0.045784  -0.013762   0.000000  -0.000830   0.000011  -0.052295
    23  O   -0.001873   0.002373  -0.000000  -0.000145   0.000000   0.015454
    24  H    0.000118  -0.000045  -0.000000   0.000000  -0.000000   0.000261
              19         20         21         22         23         24
     1  C   -0.001540  -0.003295   0.001130  -0.000164   0.000475  -0.000007
     2  C   -0.000164   0.000122  -0.000233   0.000232   0.000016   0.000000
     3  C   -0.000817  -0.003945   0.000545  -0.000595   0.002611  -0.000055
     4  H   -0.000001   0.000003  -0.000001   0.000001  -0.000000   0.000000
     5  C    0.000271  -0.000569  -0.015978   0.018327   0.000822  -0.000013
     6  H    0.000201   0.000020   0.000072  -0.000084   0.000002   0.000000
     7  C    0.000399  -0.000286   0.001022  -0.000979  -0.000015   0.000000
     8  H    0.000000  -0.000000   0.000000  -0.000000   0.000000  -0.000000
     9  C    0.002027   0.001699   0.006686  -0.007579  -0.000850   0.000011
    10  H   -0.000000   0.000000  -0.000000   0.000000  -0.000000   0.000000
    11  C    0.002603   0.013761  -0.043842   0.031940  -0.005349   0.000028
    12  C    0.000356  -0.000040   0.005082  -0.004884  -0.000224   0.000000
    13  C    0.001887   0.000692   0.041946  -0.045784  -0.001873   0.000118
    14  C    0.000653  -0.004181   0.018767  -0.013762   0.002373  -0.000045
    15  H    0.000000   0.000000  -0.000000   0.000000  -0.000000  -0.000000
    16  H    0.000027  -0.000052   0.001023  -0.000830  -0.000145   0.000000
    17  H   -0.000000   0.000001  -0.000016   0.000011   0.000000  -0.000000
    18  C   -0.005734  -0.007007   0.019759  -0.052295   0.015454   0.000261
    19  H   -0.007850  -0.000213  -0.000222   0.000201   0.000711  -0.000041
    20  H   -0.000213  -0.002882  -0.002803   0.005348  -0.000798  -0.000030
    21  H   -0.000222  -0.002803   0.003637  -0.027477   0.014916   0.000816
    22  O    0.000201   0.005348  -0.027477   0.811523  -0.116072  -0.001872
    23  O    0.000711  -0.000798   0.014916  -0.116072   0.298064   0.002934
    24  H   -0.000041  -0.000030   0.000816  -0.001872   0.002934  -0.010462
 Mulliken charges and spin densities:
               1          2
     1  C   -0.439129  -0.003361
     2  C   -0.351612   0.000009
     3  C   -0.092199  -0.003150
     4  H    0.149591   0.000001
     5  C    0.694279  -0.004723
     6  H    0.171662  -0.001346
     7  C   -0.034254  -0.000218
     8  H    0.149135   0.000005
     9  C    0.137468   0.001937
    10  H    0.151021   0.000152
    11  C    0.107031  -0.044326
    12  C   -0.077057   0.002248
    13  C   -0.325440   0.045723
    14  C   -0.484272   0.007455
    15  H    0.152544   0.000063
    16  H    0.173454  -0.001918
    17  H    0.150351  -0.000041
    18  C   -0.951604   0.188459
    19  H    0.186299  -0.007247
    20  H    0.185331  -0.004457
    21  H    0.587642   0.024830
    22  O   -0.278140   0.595207
    23  O   -0.239396   0.213052
    24  H    0.277293  -0.008355
 Sum of Mulliken charges =  -0.00000   1.00000
 Mulliken charges and spin densities with hydrogens summed into heavy atoms:
               1          2
     1  C   -0.289538  -0.003360
     2  C   -0.202478   0.000014
     3  C    0.079463  -0.004497
     5  C    0.694279  -0.004723
     7  C    0.116768  -0.000066
     9  C    0.137468   0.001937
    11  C    0.107031  -0.044326
    12  C    0.075487   0.002311
    13  C   -0.151986   0.043805
    14  C   -0.333921   0.007414
    18  C    0.007668   0.201585
    22  O   -0.278140   0.595207
    23  O    0.037897   0.204697
 Electronic spatial extent (au):  <R**2>=           3171.8747
 Charge=             -0.0000 electrons
 Dipole moment (field-independent basis, Debye):
    X=             -0.4270    Y=             -1.4760    Z=              0.9935  Tot=              1.8297
 Quadrupole moment (field-independent basis, Debye-Ang):
   XX=            -65.6719   YY=            -67.8321   ZZ=            -82.1570
   XY=              7.3535   XZ=             -6.2015   YZ=             -1.2414
 Traceless Quadrupole moment (field-independent basis, Debye-Ang):
   XX=              6.2151   YY=              4.0549   ZZ=            -10.2700
   XY=              7.3535   XZ=             -6.2015   YZ=             -1.2414
 Octapole moment (field-independent basis, Debye-Ang**2):
  XXX=            -58.3532  YYY=             -3.1373  ZZZ=              0.2086  XYY=            -17.9685
  XXY=            -40.5071  XXZ=             30.8011  XZZ=            -23.6247  YZZ=             -3.9629
  YYZ=              1.1239  XYZ=              5.9434
 Hexadecapole moment (field-independent basis, Debye-Ang**3):
 XXXX=          -2587.3556 YYYY=           -893.2290 ZZZZ=           -104.7657 XXXY=            233.1426
 XXXZ=           -184.6484 YYYX=             20.2575 YYYZ=             -2.9582 ZZZX=              0.7268
 ZZZY=             -1.2200 XXYY=           -566.3029 XXZZ=           -555.4359 YYZZ=           -199.1367
 XXYZ=            -34.9725 YYXZ=             -8.7071 ZZXY=             14.1665
 N-N= 7.172873540786D+02 E-N=-2.777530203382D+03  KE= 5.740189812093D+02
                          Isotropic Fermi Contact Couplings
        Atom                 a.u.       MegaHertz       Gauss      10(-4) cm-1
     1  C(13)              0.00004       0.04145       0.01479       0.01383
     2  C(13)              0.00013       0.14309       0.05106       0.04773
     3  C(13)              0.00143       1.60574       0.57297       0.53562
     4  H(1)               0.00000       0.01618       0.00577       0.00540
     5  C(13)              0.00895      10.06049       3.58983       3.35582
     6  H(1)               0.00002       0.10373       0.03702       0.03460
     7  C(13)              0.00060       0.67719       0.24164       0.22588
     8  H(1)               0.00000       0.00375       0.00134       0.00125
     9  C(13)              0.00186       2.08631       0.74445       0.69592
    10  H(1)               0.00009       0.40983       0.14624       0.13671
    11  C(13)              0.00960      10.78863       3.84965       3.59870
    12  C(13)              0.00003       0.03374       0.01204       0.01126
    13  C(13)              0.00454       5.09984       1.81975       1.70112
    14  C(13)              0.00007       0.07649       0.02729       0.02551
    15  H(1)               0.00000       0.01250       0.00446       0.00417
    16  H(1)              -0.00008      -0.36971      -0.13192      -0.12332
    17  H(1)              -0.00003      -0.12123      -0.04326      -0.04044
    18  C(13)              0.09471     106.47246      37.99202      35.51539
    19  H(1)              -0.00264     -11.81657      -4.21645      -3.94158
    20  H(1)              -0.00057      -2.55927      -0.91321      -0.85368
    21  H(1)               0.00027       1.19911       0.42787       0.39998
    22  O(17)              0.21128    -128.07859     -45.70163     -42.72242
    23  O(17)              0.03469     -21.03014      -7.50408      -7.01490
    24  H(1)              -0.00422     -18.86411      -6.73119      -6.29239
 --------------------------------------------------------
       Center         ----  Spin Dipole Couplings  ----
                      3XX-RR        3YY-RR        3ZZ-RR
 --------------------------------------------------------
     1   Atom        0.001428     -0.000404     -0.001024
     2   Atom        0.001085     -0.000433     -0.000652
     3   Atom        0.003715     -0.001292     -0.002423
     4   Atom        0.000753     -0.000208     -0.000545
     5   Atom        0.015406     -0.007533     -0.007872
     6   Atom        0.002571      0.000111     -0.002682
     7   Atom        0.002017     -0.000885     -0.001132
     8   Atom        0.000599     -0.000277     -0.000322
     9   Atom        0.003484     -0.000909     -0.002575
    10   Atom        0.000726     -0.000300     -0.000427
    11   Atom        0.022830     -0.006954     -0.015876
    12   Atom        0.001326      0.000263     -0.001589
    13   Atom        0.003067      0.002887     -0.005954
    14   Atom        0.000781      0.000752     -0.001533
    15   Atom        0.000596     -0.000028     -0.000568
    16   Atom        0.000612      0.005782     -0.006394
    17   Atom        0.000197      0.000839     -0.001036
    18   Atom        0.173307     -0.058503     -0.114804
    19   Atom        0.000884     -0.000392     -0.000491
    20   Atom        0.000711     -0.002816      0.002105
    21   Atom        0.176185     -0.081936     -0.094249
    22   Atom       -0.885399      1.042309     -0.156910
    23   Atom        0.220474      0.120058     -0.340532
    24   Atom       -0.002439      0.003853     -0.001414
 --------------------------------------------------------
                        XY            XZ            YZ
 --------------------------------------------------------
     1   Atom       -0.000689     -0.000107      0.000028
     2   Atom       -0.000188     -0.000008      0.000020
     3   Atom       -0.001098     -0.000397     -0.000023
     4   Atom       -0.000622     -0.000028      0.000018
     5   Atom       -0.001949     -0.003144      0.000268
     6   Atom       -0.002837     -0.000206      0.000141
     7   Atom        0.000029     -0.000126      0.000005
     8   Atom       -0.000131     -0.000021      0.000005
     9   Atom        0.002705      0.000093      0.000081
    10   Atom        0.000272     -0.000035     -0.000010
    11   Atom        0.016317     -0.001758     -0.000795
    12   Atom        0.001263     -0.000196     -0.000173
    13   Atom        0.006910      0.000088      0.000314
    14   Atom        0.002035      0.000087      0.000085
    15   Atom        0.000670     -0.000039     -0.000023
    16   Atom        0.006353     -0.000378     -0.000307
    17   Atom        0.001365     -0.000028     -0.000040
    18   Atom       -0.133591      0.022027     -0.007659
    19   Atom       -0.012049     -0.007129      0.016377
    20   Atom       -0.008932      0.004749     -0.015430
    21   Atom       -0.020545      0.030728      0.011687
    22   Atom       -1.092058     -0.756289      1.715000
    23   Atom       -0.917711     -0.649762      0.373704
    24   Atom        0.013790     -0.025917     -0.033546
 --------------------------------------------------------


 ---------------------------------------------------------------------------------
              Anisotropic Spin Dipole Couplings in Principal Axis System
 ---------------------------------------------------------------------------------

       Atom             a.u.   MegaHertz   Gauss  10(-4) cm-1        Axes

              Baa    -0.0010    -0.138    -0.049    -0.046  0.0452  0.0054  0.9990
     1 C(13)  Bbb    -0.0006    -0.085    -0.030    -0.028  0.3159  0.9486 -0.0194
              Bcc     0.0017     0.223     0.080     0.074  0.9477 -0.3164 -0.0412
 
              Baa    -0.0007    -0.088    -0.031    -0.029 -0.0058 -0.0941  0.9955
     2 C(13)  Bbb    -0.0005    -0.061    -0.022    -0.020  0.1210  0.9882  0.0941
              Bcc     0.0011     0.149     0.053     0.050  0.9926 -0.1210 -0.0057
 
              Baa    -0.0025    -0.330    -0.118    -0.110  0.0808  0.0956  0.9921
     3 C(13)  Bbb    -0.0015    -0.203    -0.072    -0.068  0.1964  0.9744 -0.1098
              Bcc     0.0040     0.532     0.190     0.178  0.9772 -0.2037 -0.0600
 
              Baa    -0.0005    -0.291    -0.104    -0.097 -0.0314 -0.1107  0.9934
     4 H(1)   Bbb    -0.0005    -0.274    -0.098    -0.091  0.4403  0.8907  0.1132
              Bcc     0.0011     0.565     0.202     0.188  0.8973 -0.4409 -0.0208
 
              Baa    -0.0083    -1.112    -0.397    -0.371  0.1302 -0.0155  0.9914
     5 C(13)  Bbb    -0.0077    -1.033    -0.369    -0.345  0.0847  0.9964  0.0045
              Bcc     0.0160     2.145     0.766     0.716  0.9879 -0.0833 -0.1311
 
              Baa    -0.0027    -1.436    -0.512    -0.479  0.0263 -0.0238  0.9994
     6 H(1)   Bbb    -0.0018    -0.934    -0.333    -0.312  0.5490  0.8358  0.0054
              Bcc     0.0044     2.370     0.846     0.791  0.8354 -0.5485 -0.0350
 
              Baa    -0.0011    -0.153    -0.054    -0.051  0.0401 -0.0247  0.9989
     7 C(13)  Bbb    -0.0009    -0.119    -0.042    -0.040 -0.0090  0.9996  0.0251
              Bcc     0.0020     0.271     0.097     0.091  0.9992  0.0100 -0.0399
 
              Baa    -0.0003    -0.172    -0.061    -0.057  0.0150 -0.0576  0.9982
     8 H(1)   Bbb    -0.0003    -0.158    -0.056    -0.053  0.1459  0.9878  0.0548
              Bcc     0.0006     0.330     0.118     0.110  0.9892 -0.1448 -0.0232
 
              Baa    -0.0026    -0.346    -0.124    -0.115  0.0225 -0.0848  0.9961
     9 C(13)  Bbb    -0.0022    -0.294    -0.105    -0.098 -0.4296  0.8989  0.0862
              Bcc     0.0048     0.641     0.229     0.214  0.9027  0.4299  0.0162
 
              Baa    -0.0004    -0.228    -0.081    -0.076  0.0229  0.0313  0.9992
    10 H(1)   Bbb    -0.0004    -0.196    -0.070    -0.065 -0.2416  0.9700 -0.0248
              Bcc     0.0008     0.424     0.151     0.141  0.9701  0.2409 -0.0298
 
              Baa    -0.0160    -2.141    -0.764    -0.714  0.0344  0.0259  0.9991
    11 C(13)  Bbb    -0.0142    -1.899    -0.678    -0.633 -0.4040  0.9147 -0.0098
              Bcc     0.0301     4.041     1.442     1.348  0.9141  0.4033 -0.0419
 
              Baa    -0.0016    -0.216    -0.077    -0.072  0.0379  0.0667  0.9971
    12 C(13)  Bbb    -0.0006    -0.077    -0.028    -0.026 -0.5556  0.8307 -0.0344
              Bcc     0.0022     0.293     0.105     0.098  0.8306  0.5527 -0.0686
 
              Baa    -0.0060    -0.801    -0.286    -0.267  0.0428 -0.0688  0.9967
    13 C(13)  Bbb    -0.0039    -0.526    -0.188    -0.175 -0.7014  0.7083  0.0790
              Bcc     0.0099     1.328     0.474     0.443  0.7114  0.7025  0.0179
 
              Baa    -0.0015    -0.206    -0.074    -0.069 -0.0224 -0.0171  0.9996
    14 C(13)  Bbb    -0.0013    -0.170    -0.061    -0.057 -0.7046  0.7096 -0.0036
              Bcc     0.0028     0.376     0.134     0.126  0.7093  0.7044  0.0279
 
              Baa    -0.0006    -0.304    -0.108    -0.101  0.0308  0.0052  0.9995
    15 H(1)   Bbb    -0.0005    -0.243    -0.087    -0.081 -0.5373  0.8433  0.0122
              Bcc     0.0010     0.546     0.195     0.182  0.8428  0.5374 -0.0288
 
              Baa    -0.0064    -3.423    -1.221    -1.142  0.0587 -0.0055  0.9983
    16 H(1)   Bbb    -0.0037    -1.950    -0.696    -0.650  0.8276 -0.5589 -0.0517
              Bcc     0.0101     5.372     1.917     1.792  0.5582  0.8292 -0.0283
 
              Baa    -0.0010    -0.553    -0.197    -0.185 -0.0066  0.0263  0.9996
    17 H(1)   Bbb    -0.0009    -0.472    -0.168    -0.157  0.7840 -0.6204  0.0215
              Bcc     0.0019     1.025     0.366     0.342  0.6207  0.7838 -0.0166
 
              Baa    -0.1206   -16.180    -5.773    -5.397  0.3965  0.7971 -0.4555
    18 C(13)  Bbb    -0.1152   -15.462    -5.517    -5.158  0.1358  0.4397  0.8878
              Bcc     0.2358    31.643    11.291    10.555  0.9079 -0.4139  0.0661
 
              Baa    -0.0177    -9.459    -3.375    -3.155  0.2531  0.7515 -0.6093
    19 H(1)   Bbb    -0.0063    -3.346    -1.194    -1.116  0.8218  0.1653  0.5453
              Bcc     0.0240    12.805     4.569     4.271 -0.5105  0.6387  0.5757
 
              Baa    -0.0169    -9.021    -3.219    -3.009  0.2417  0.7821  0.5744
    20 H(1)   Bbb    -0.0031    -1.630    -0.582    -0.544  0.8619  0.0989 -0.4974
              Bcc     0.0200    10.651     3.801     3.553  0.4458 -0.6152  0.6502
 
              Baa    -0.1061   -56.627   -20.206   -18.889 -0.1297 -0.5184  0.8452
    21 H(1)   Bbb    -0.0749   -39.959   -14.258   -13.329  0.0057  0.8521  0.5234
[...]
    R6        2.68545  -0.00216   0.00000  -0.00611  -0.00611   2.67934
    R7        2.03770   0.00103   0.00000   0.00290   0.00290   2.04060
    R8        2.68259   0.00021   0.00000   0.00060   0.00060   2.68319
    R9        2.71743  -0.00390   0.00000  -0.01102  -0.01102   2.70641
   R10        2.67748  -0.00063   0.00000  -0.00179  -0.00179   2.67569
   R11        2.04613  -0.00011   0.00000  -0.00032  -0.00032   2.04581
   R12        2.67931   0.00021   0.00000   0.00058   0.00058   2.67989
   R13        2.58633  -0.00066   0.00000  -0.00186  -0.00186   2.58447
   R14        2.83442  -0.00102   0.00000  -0.00289  -0.00289   2.83153
   R15        2.57327   0.00057   0.00000   0.00160   0.00160   2.57487
   R16        2.04465   0.00006   0.00000   0.00016   0.00016   2.04481
   R17        2.66919   0.00026   0.00000   0.00074   0.00075   2.66993
   R18        2.04333   0.00146   0.00000   0.00412   0.00412   2.04745
   R19        2.04379  -0.00013   0.00000  -0.00036  -0.00036   2.04343
   R20        2.05847   0.00155   0.00000   0.00439   0.00439   2.06286
   R21        2.06786  -0.00104   0.00000  -0.00293  -0.00293   2.06493
   R22        2.07904  -0.00890   0.00000  -0.02515  -0.02515   2.05390
   R23        4.79049  -0.00025   0.00000  -0.00072  -0.00072   4.78977
   R24        2.47459  -0.00333   0.00000  -0.00941  -0.00941   2.46519
   R25        1.83783  -0.00057   0.00000  -0.00162  -0.00162   1.83621
    A1        2.10321  -0.00013   0.00000  -0.00036  -0.00036   2.10286
    A2        2.08448   0.00036   0.00000   0.00103   0.00103   2.08551
    A3        2.09549  -0.00024   0.00000  -0.00067  -0.00067   2.09482
    A4        2.09263  -0.00023   0.00000  -0.00065  -0.00065   2.09198
    A5        2.08811   0.00053   0.00000   0.00149   0.00149   2.08960
    A6        2.10244  -0.00030   0.00000  -0.00084  -0.00084   2.10160
    A7        2.11357   0.00008   0.00000   0.00021   0.00021   2.11379
    A8        2.08683  -0.00051   0.00000  -0.00143  -0.00143   2.08540
    A9        2.08277   0.00043   0.00000   0.00121   0.00121   2.08399
   A10        2.06147   0.00053   0.00000   0.00149   0.00149   2.06296
   A11        2.13371   0.00094   0.00000   0.00266   0.00266   2.13638
   A12        2.08800  -0.00147   0.00000  -0.00415  -0.00415   2.08385
   A13        2.11149  -0.00002   0.00000  -0.00005  -0.00005   2.11144
   A14        2.10108   0.00042   0.00000   0.00119   0.00119   2.10227
   A15        2.07061  -0.00040   0.00000  -0.00114  -0.00114   2.06947
   A16        2.08395  -0.00023   0.00000  -0.00064  -0.00064   2.08331
   A17        2.08485   0.00050   0.00000   0.00140   0.00139   2.08624
   A18        2.11438  -0.00027   0.00000  -0.00076  -0.00075   2.11363
   A19        2.06546   0.00265   0.00000   0.00749   0.00749   2.07296
   A20        2.07472   0.00452   0.00000   0.01275   0.01275   2.08748
   A21        2.14297  -0.00717   0.00000  -0.02024  -0.02024   2.12273
   A22        2.09641   0.00020   0.00000   0.00057   0.00057   2.09698
   A23        2.07428  -0.00008   0.00000  -0.00022  -0.00022   2.07407
   A24        2.11248  -0.00012   0.00000  -0.00035  -0.00035   2.11213
   A25        2.12852  -0.00070   0.00000  -0.00197  -0.00197   2.12655
   A26        2.07299   0.00058   0.00000   0.00164   0.00164   2.07462
   A27        2.08149   0.00013   0.00000   0.00037   0.00037   2.08186
   A28        2.10297  -0.00118   0.00000  -0.00332  -0.00332   2.09965
   A29        2.09980   0.00065   0.00000   0.00183   0.00183   2.10163
   A30        2.08041   0.00053   0.00000   0.00150   0.00150   2.08191
   A31        1.91508   0.00388   0.00000   0.01095   0.01095   1.92603
   A32        1.90325   0.00702   0.00000   0.01982   0.01976   1.92301
   A33        2.06138  -0.01770   0.00000  -0.05000  -0.04992   2.01145
   A34        1.85691  -0.00188   0.00000  -0.00530  -0.00551   1.85139
   A35        1.84250   0.00663   0.00000   0.01874   0.01876   1.86125
   A36        1.87397   0.00315   0.00000   0.00890   0.00897   1.88294
   A37        2.94578   0.00146   0.00000   0.00413   0.00413   2.94991
   A38        1.63346  -0.00124   0.00000  -0.00349  -0.00349   1.62997
   A39        1.84605   0.00097   0.00000   0.00273   0.00273   1.84878
    D1        0.00460  -0.00003   0.00000  -0.00009  -0.00009   0.00451
    D2       -3.13870  -0.00011   0.00000  -0.00031  -0.00031  -3.13901
    D3       -3.13997   0.00012   0.00000   0.00035   0.00035  -3.13962
    D4       -0.00008   0.00004   0.00000   0.00012   0.00012   0.00004
    D5       -0.00185  -0.00001   0.00000  -0.00002  -0.00002  -0.00187
    D6       -3.13828   0.00006   0.00000   0.00016   0.00016  -3.13812
    D7       -3.14045  -0.00016   0.00000  -0.00046  -0.00046  -3.14091
    D8        0.00630  -0.00010   0.00000  -0.00028  -0.00028   0.00603
    D9       -0.00047   0.00004   0.00000   0.00012   0.00012  -0.00034
   D10       -3.14112  -0.00004   0.00000  -0.00010  -0.00010  -3.14122
   D11       -3.14034   0.00012   0.00000   0.00035   0.00035  -3.13999
   D12        0.00220   0.00004   0.00000   0.00012   0.00012   0.00232
   D13       -0.00484   0.00003   0.00000   0.00008   0.00008  -0.00476
   D14        3.13887   0.00018   0.00000   0.00050   0.00050   3.13937
   D15        3.13161  -0.00004   0.00000  -0.00011  -0.00011   3.13150
   D16       -0.00788   0.00011   0.00000   0.00031   0.00031  -0.00757
   D17        0.00878  -0.00002   0.00000  -0.00004  -0.00004   0.00874
   D18       -3.13112  -0.00000   0.00000  -0.00001  -0.00001  -3.13113
   D19       -3.13486  -0.00016   0.00000  -0.00044  -0.00044  -3.13530
   D20        0.00842  -0.00014   0.00000  -0.00040  -0.00040   0.00802
   D21        3.12325   0.00002   0.00000   0.00004   0.00005   3.12330
   D22       -0.01051  -0.00012   0.00000  -0.00033  -0.00034  -0.01085
   D23       -0.01620   0.00016   0.00000   0.00046   0.00046  -0.01573
   D24        3.13323   0.00003   0.00000   0.00008   0.00007   3.13330
   D25       -0.00628  -0.00002   0.00000  -0.00005  -0.00005  -0.00633
   D26        3.13359  -0.00003   0.00000  -0.00008  -0.00008   3.13351
   D27        3.13438   0.00006   0.00000   0.00018   0.00018   3.13456
   D28       -0.00893   0.00005   0.00000   0.00014   0.00014  -0.00879
   D29        0.00692  -0.00007   0.00000  -0.00020  -0.00020   0.00672
   D30       -3.14095   0.00014   0.00000   0.00039   0.00039  -3.14056
   D31       -3.13295  -0.00006   0.00000  -0.00016  -0.00016  -3.13311
   D32        0.00236   0.00015   0.00000   0.00043   0.00043   0.00279
   D33        0.00913   0.00001   0.00000   0.00003   0.00003   0.00916
   D34       -3.11126  -0.00072   0.00000  -0.00203  -0.00203  -3.11329
   D35       -3.14062   0.00021   0.00000   0.00059   0.00058  -3.14003
   D36        0.02218  -0.00052   0.00000  -0.00147  -0.00148   0.02070
   D37       -0.93203  -0.00205   0.00000  -0.00579  -0.00585  -0.93789
   D38        1.09546   0.00186   0.00000   0.00527   0.00538   1.10084
   D39       -3.04353  -0.00120   0.00000  -0.00338  -0.00344  -3.04697
   D40        2.21775  -0.00224   0.00000  -0.00632  -0.00639   2.21137
   D41       -2.03794   0.00167   0.00000   0.00473   0.00485  -2.03310
   D42        0.10626  -0.00139   0.00000  -0.00392  -0.00397   0.10229
   D43       -0.01435   0.00025   0.00000   0.00071   0.00071  -0.01364
   D44        3.12724   0.00040   0.00000   0.00112   0.00112   3.12836
   D45        3.13367   0.00004   0.00000   0.00010   0.00010   3.13377
   D46       -0.00793   0.00018   0.00000   0.00052   0.00052  -0.00742
   D47        0.00624  -0.00021   0.00000  -0.00058  -0.00058   0.00566
   D48       -3.13534  -0.00035   0.00000  -0.00099  -0.00099  -3.13633
   D49        3.12653   0.00053   0.00000   0.00150   0.00150   3.12803
   D50       -0.01506   0.00039   0.00000   0.00109   0.00109  -0.01396
   D51        2.46441  -0.00111   0.00000  -0.00314  -0.00325   2.46116
   D52        0.31600   0.00038   0.00000   0.00107   0.00117   0.31718
   D53       -1.65990  -0.00192   0.00000  -0.00542  -0.00542  -1.66532
   D54       -2.04643  -0.00236   0.00000  -0.00667  -0.00667  -2.05310
   D55        1.71670   0.00039   0.00000   0.00110   0.00110   1.71780
         Item               Value     Threshold  Converged?
 Maximum Force            0.017702     0.002500     NO 
 RMS     Force            0.002388     0.001667     NO 
 Maximum Displacement     0.297771     0.010000     NO 
 RMS     Displacement     0.060895     0.006667     NO 
 Predicted change in Energy=-1.835309D-03
 GradGradGradGradGradGradGradGradGradGradGradGradGradGradGradGradGradGrad

                          Input orientation:                          
 ---------------------------------------------------------------------
 Center     Atomic      Atomic             Coordinates (Angstroms)
 Number     Number       Type             X           Y           Z
 ---------------------------------------------------------------------
      1          6           0       -3.483471  -11.988524   -0.482964
      2          6           0       -3.912828  -11.859438   -1.820242
      3          6           0       -2.930643  -10.923971    0.174114
      4          1           0       -3.596394  -12.937444    0.023155
      5          6           0       -2.772430   -9.669240   -0.466909
      6          1           0       -2.604476  -11.041724    1.196761
      7          6           0       -3.771724  -10.665227   -2.467414
      8          1           0       -4.350429  -12.708472   -2.327228
      9          6           0       -3.198657   -9.546428   -1.815729
     10          1           0       -4.098306  -10.555408   -3.493715
     11          6           0       -2.199817   -8.535818    0.195348
     12          6           0       -3.041953   -8.307817   -2.488331
     13          6           0       -2.062477   -7.366653   -0.500812
     14          6           0       -2.478896   -7.246498   -1.845561
     15          1           0       -3.371550   -8.226533   -3.515768
     16          1           0       -1.605177   -6.516048   -0.009653
     17          1           0       -2.346168   -6.303667   -2.358144
     18          6           0       -1.758278   -8.657206    1.622040
     19          1           0       -2.574175   -9.034856    2.241167
     20          1           0       -0.951097   -9.388957    1.705871
     21          1           0       -1.419987   -7.732822    2.082877
     22          8           0       -0.861862   -5.743184    3.550608
     23          8           0       -1.510308   -4.903241    2.791802
     24          1           0       -2.376637   -4.777075    3.213375
 ---------------------------------------------------------------------
                    Distance matrix (angstroms):
                    1          2          3          4          5
     1  C    0.000000
     2  C    1.410434   0.000000
     3  C    1.367715   2.411897   0.000000
     4  H    1.081368   2.158782   2.126049   0.000000
     5  C    2.425884   2.815846   1.417848   3.405912   0.000000
     6  H    2.119089   3.388621   1.079841   2.440288   2.163266
     7  C    2.402550   1.365607   2.784248   3.375891   2.447979
     8  H    2.161308   1.081383   3.384812   2.478971   3.897153
     9  C    2.796643   2.420759   2.434940   3.877973   1.419883
    10  H    3.390643   2.129649   3.866813   4.277193   3.421227
    11  C    3.745537   4.247760   2.497565   4.621080   1.432171
    12  C    4.214741   3.717362   3.734336   5.296075   2.451991
    13  C    4.835415   5.034860   3.723406   5.801823   2.409790
    14  C    5.035141   4.830737   4.219831   6.093255   2.802949
    15  H    4.833529   4.045465   4.591928   5.896372   3.425768
    16  H    5.805171   6.095516   4.606562   6.723120   3.393256
    17  H    6.093222   5.797444   5.301052   7.158257   3.884012
    18  C    4.301745   5.171623   2.934136   4.924991   2.533067
    19  H    4.119692   5.124969   2.822859   4.603770   2.788444
    20  H    4.238121   5.225764   2.936180   4.735070   2.848998
    21  H    5.380753   6.203028   4.013588   6.005605   3.475662
    22  O    7.883325   8.692698   6.520822   8.466284   5.933349
    23  O    8.051006   8.685145   6.717055   8.750176   5.909898
    24  H    8.178815   8.823665   6.879561   8.846295   6.134690
                    6          7          8          9         10
     6  H    0.000000
     7  C    3.863987   0.000000
     8  H    4.271405   2.128239   0.000000
     9  C    3.415268   1.415913   3.403929   0.000000
    10  H    4.946574   1.082594   2.461695   2.154772   0.000000
    11  C    2.728761   3.754407   5.329124   2.462407   4.614345
    12  C    4.609288   2.467871   4.593891   1.418135   2.679243
    13  C    4.084319   4.203527   6.091433   2.787711   4.823922
    14  C    4.865720   3.707535   5.793773   2.410109   4.035812
    15  H    5.542709   2.684476   4.739052   2.159200   2.439737
    16  H    4.789131   5.286796   7.159168   3.870956   5.888193
    17  H    5.929018   4.589919   6.711151   3.396535   4.736751
    18  C    2.565704   4.980939   6.223241   3.831928   5.937158
    19  H    2.262570   5.124741   6.125420   4.136434   6.125677
    20  H    2.392592   5.196260   6.232218   4.180669   6.188799
    21  H    3.624506   5.902103   7.265922   4.653168   6.799909
    22  O    6.054075   8.301229   9.758807   6.980176   9.124393
    23  O    6.436018   8.122428   9.756659   6.755668   8.840387
    24  H    6.585170   8.299878   9.874270   6.979566   9.018777
                   11         12         13         14         15
    11  C    0.000000
    12  C    2.821934   0.000000
    13  C    1.367643   2.407363   0.000000
    14  C    2.430132   1.362565   1.412867   0.000000
    15  H    3.903972   1.082066   3.397503   2.132343   0.000000
    16  H    2.115442   3.379143   1.083462   2.160441   4.282368
    17  H    3.394737   2.125484   2.158727   1.081336   2.467572
    18  C    1.498380   4.320306   2.502911   3.812302   5.402333
    19  H    2.138821   4.807863   3.250105   4.461911   5.867835
    20  H    2.137482   4.809561   3.192856   4.420065   5.871570
    21  H    2.194471   4.884397   2.687438   4.097613   5.949552
    22  O    4.565819   6.913676   4.526713   5.830386   7.899318
    23  O    4.518032   6.466597   4.149047   5.285277   7.368441
    24  H    4.823682   6.739305   4.538700   5.630395   7.626925
                   16         17         18         19         20
    16  H    0.000000
    17  H    2.471758   0.000000
    18  C    2.696372   4.661183   0.000000
    19  H    3.514191   5.353974   1.091616   0.000000
    20  H    3.409465   5.289750   1.092716   1.745369   0.000000
    21  H    2.427657   4.756360   1.086875   1.747140   1.762037
    22  O    3.718238   6.118060   3.607556   3.934686   4.086891
    23  O    3.233928   5.402018   3.939808   4.301773   4.649044
    24  H    3.742604   5.776958   4.239120   4.371831   5.057093
                   21         22         23         24
    21  H    0.000000
    22  O    2.534640   0.000000
    23  O    2.918435   1.304520   0.000000
    24  H    3.306001   1.828014   0.971683   0.000000
 Stoichiometry    C11H11O2(2)
 Framework group  C1[X(C11H11O2)]
 Deg. of freedom    66
 Full point group                 C1      NOp   1
 Largest Abelian subgroup         C1      NOp   1
 Largest concise Abelian subgroup C1      NOp   1
                         Standard orientation:                         
 ---------------------------------------------------------------------
 Center     Atomic      Atomic             Coordinates (Angstroms)
 Number     Number       Type             X           Y           Z
 ---------------------------------------------------------------------
      1          6           0        2.882876   -1.792818   -0.114092
      2          6           0        3.738630   -0.677957   -0.232809
      3          6           0        1.534295   -1.619682    0.034228
      4          1           0        3.300392   -2.789901   -0.143468
      5          6           0        0.962242   -0.322995    0.074859
      6          1           0        0.894426   -2.484571    0.126910
      7          6           0        3.219740    0.584643   -0.194385
      8          1           0        4.802745   -0.829096   -0.351992
      9          6           0        1.828636    0.796357   -0.036858
     10          1           0        3.867748    1.447135   -0.284949
     11          6           0       -0.445826   -0.109710    0.226418
     12          6           0        1.288066    2.106468    0.013147
     13          6           0       -0.915402    1.173754    0.278043
     14          6           0       -0.052611    2.287852    0.175227
     15          1           0        1.958492    2.951327   -0.074078
     16          1           0       -1.977136    1.336999    0.419333
     17          1           0       -0.467913    3.284955    0.226194
     18          6           0       -1.365547   -1.287710    0.333992
     19          1           0       -1.214286   -1.965640   -0.508122
     20          1           0       -1.134960   -1.865168    1.232546
     21          1           0       -2.425470   -1.048008    0.354133
     22          8           0       -4.944301   -0.884232    0.123781
     23          8           0       -4.891193    0.267111   -0.487253
     24          1           0       -4.970671    0.069729   -1.435352
 ---------------------------------------------------------------------
 Rotational constants (GHZ):           1.6056717           0.3597995           0.2984900
 Standard basis: 6-311+G(2df,2p) (5D, 7F)
 There are   606 symmetry adapted cartesian basis functions of A   symmetry.
 There are   541 symmetry adapted basis functions of A   symmetry.
   541 basis functions,   797 primitive gaussians,   606 cartesian basis functions
    47 alpha electrons       46 beta electrons
       nuclear repulsion energy       701.3062264333 Hartrees.
 NAtoms=   24 NActive=   24 NUniq=   24 SFac= 1.00D+00 NAtFMM=   60 NAOKFM=F Big=F
 Integral buffers will be    131072 words long.
 Raffenetti 2 integral format.
 Two-electron integral symmetry is turned on.
 One-electron integrals computed using PRISM.
 NBasis=   541 RedAO= T EigKep=  1.24D-06  NBF=   541
 NBsUse=   538 1.00D-06 EigRej=  6.77D-07 NBFU=   538
 Initial guess from the checkpoint file:  "/scratch/dinius.ab/QMscratch/Gau-24139.chk"
 B after Tr=     0.000000   -0.000000   -0.000000
         Rot=    0.999956   -0.006162    0.000774   -0.007065 Ang=  -1.08 deg.
 Initial guess <Sx>= 0.0000 <Sy>= 0.0000 <Sz>= 0.5000 <S**2>= 0.7550 S= 0.5025
 ExpMin= 4.38D-02 ExpMax= 8.59D+03 ExpMxC= 1.30D+03 IAcc=2 IRadAn=         4 AccDes= 0.00D+00
 Harris functional with IExCor= 1009 and IRadAn=       4 diagonalized for initial guess.
 HarFok:  IExCor= 1009 AccDes= 0.00D+00 IRadAn=         4 IDoV= 1 UseB2=F ITyADJ=14
 ICtDFT=  3500011 ScaDFX=  1.000000  1.000000  1.000000  1.000000
 FoFCou: FMM=F IPFlag=           0 FMFlag=      100000 FMFlg1=           0
         NFxFlg=           0 DoJE=T BraDBF=F KetDBF=T FulRan=T
         wScrn=  0.000000 ICntrl=       500 IOpCl=  0 I1Cent=   200000004 NGrid=           0
         NMat0=    1 NMatS0=      1 NMatT0=    0 NMatD0=    1 NMtDS0=    0 NMtDT0=    0
 Petite list used in FoFCou.
 Requested convergence on RMS density matrix=1.00D-08 within 128 cycles.
 Requested convergence on MAX density matrix=1.00D-06.
 Requested convergence on             energy=1.00D-06.
 No special actions if energy rises.
 SCF Done:  E(UM062X) =  -576.052383370     A.U. after   18 cycles
            NFock= 18  Conv=0.46D-08     -V/T= 2.0038
 <Sx>= 0.0000 <Sy>= 0.0000 <Sz>= 0.5000 <S**2>= 0.7550 S= 0.5025
 <L.S>= 0.000000000000E+00
 Annihilation of the first spin contaminant:
 S**2 before annihilation     0.7550,   after     0.7500
 Calling FoFJK, ICntrl=      2127 FMM=F ISym2X=0 I1Cent= 0 IOpClX= 1 NMat=1 NMatS=1 NMatT=0.
