 Entering Gaussian System, Link 0=g16
 Input=rxn931.com
 Output=rxn931.log
 Initial command:
 /shared/centos7/gaussian/g16/l1.exe "/scratch/dinius.ab/QMscratch/Gau-40127.inp" -scrdir="/scratch/dinius.ab/QMscratch/"
 Entering Link 1 = /shared/centos7/gaussian/g16/l1.exe PID=     40128.
  
 Copyright (c) 1988,1990,1992,1993,1995,1998,2003,2009,2016,
            Gaussian, Inc.  All Rights Reserved.
  
 This is part of the Gaussian(R) 16 program.  It is based on
 the Gaussian(R) 09 system (copyright 2009, Gaussian, Inc.),
 the Gaussian(R) 03 system (copyright 2003, Gaussian, Inc.),
 the Gaussian(R) 98 system (copyright 1998, Gaussian, Inc.),
 the Gaussian(R) 94 system (copyright 1995, Gaussian, Inc.),
 the Gaussian 92(TM) system (copyright 1992, Gaussian, Inc.),
 the Gaussian 90(TM) system (copyright 1990, Gaussian, Inc.),
 the Gaussian 88(TM) system (copyright 1988, Gaussian, Inc.),
 the Gaussian 86(TM) system (copyright 1986, Carnegie Mellon
 University), and the Gaussian 82(TM) system (copyright 1983,
 Carnegie Mellon University). Gaussian is a federally registered
 trademark of Gaussian, Inc.
  
 This software contains proprietary and confidential information,
 including trade secrets, belonging to Gaussian, Inc.
  
 This software is provided under written license and may be
 used, copied, transmitted, or stored only in accord with that
 written license.
  
 The following legend is applicable only to US Government
 contracts under FAR:
  
                    RESTRICTED RIGHTS LEGEND
  
 Use, reproduction and disclosure by the US Government is
 subject to restrictions as set forth in subparagraphs (a)
 and (c) of the Commercial Computer Software - Restricted
 Rights clause in FAR 52.227-19.
  
 Gaussian, Inc.
 340 Quinnipiac St., Bldg. 40, Wallingford CT 06492
  
  
 ---------------------------------------------------------------
 Warning -- This program may not be used in any manner that
 competes with the business of Gaussian, Inc. or will provide
 assistance to any competitor of Gaussian, Inc.  The licensee
 of this program is prohibited from giving any competitor of
 Gaussian, Inc. access to this program.  By using this program,
 the user acknowledges that Gaussian, Inc. is engaged in the
 business of creating and licensing software in the field of
 computational chemistry and represents and warrants to the
 licensee that it is not a competitor of Gaussian, Inc. and that
 it will not use this program in any manner prohibited above.
 ---------------------------------------------------------------
  

 Cite this work as:
 Gaussian 16, Revision A.03,
 M. J. Frisch, G. W. Trucks, H. B. Schlegel, G. E. Scuseria, 
 M. A. Robb, J. R. Cheeseman, G. Scalmani, V. Barone, 
 G. A. Petersson, H. Nakatsuji, X. Li, M. Caricato, A. V. Marenich, 
 J. Bloino, B. G. Janesko, R. Gomperts, B. Mennucci, H. P. Hratchian, 
 J. V. Ortiz, A. F. Izmaylov, J. L. Sonnenberg, D. Williams-Young, 
 F. Ding, F. Lipparini, F. Egidi, J. Goings, B. Peng, A. Petrone, 
 T. Henderson, D. Ranasinghe, V. G. Zakrzewski, J. Gao, N. Rega, 
 G. Zheng, W. Liang, M. Hada, M. Ehara, K. Toyota, R. Fukuda, 
 J. Hasegawa, M. Ishida, T. Nakajima, Y. Honda, O. Kitao, H. Nakai, 
 T. Vreven, K. Throssell, J. A. Montgomery, Jr., J. E. Peralta, 
 F. Ogliaro, M. J. Bearpark, J. J. Heyd, E. N. Brothers, K. N. Kudin, 
 V. N. Staroverov, T. A. Keith, R. Kobayashi, J. Normand, 
 K. Raghavachari, A. P. Rendell, J. C. Burant, S. S. Iyengar, 
 J. Tomasi, M. Cossi, J. M. Millam, M. Klene, C. Adamo, R. Cammi, 
 J. W. Ochterski, R. L. Martin, K. Morokuma, O. Farkas, 
 J. B. Foresman, and D. J. Fox, Gaussian, Inc., Wallingford CT, 2016.
 
 ******************************************
 Gaussian 16:  EM64L-G16RevA.03 25-Dec-2016
                29-Oct-2018 
 ******************************************
 ----------------------------------------------------------------------
 #m062x/6-311+g(2df,2p) Opt=(ModRedun,Loose,maxcycle=1000) Int(Grid=SG1
 ) freq
 ----------------------------------------------------------------------
 1/6=1000,7=-1,18=120,19=15,26=2,38=1/1,3;
 2/9=110,12=2,17=6,18=5,40=1/2;
 3/5=4,6=6,7=214,11=2,25=1,30=1,71=1,74=-55,75=1/1,2,3;
 4//1;
 5/5=2,38=5/2;
 6/7=2,8=2,9=2,10=2,28=1/1;
 7//1,2,3,16;
 1/6=1000,7=-1,18=20,19=15,26=2/3(2);
 2/9=110/2;
 99//99;
 2/9=110/2;
 3/5=4,6=6,7=214,11=2,25=1,30=1,71=1,74=-55,75=1/1,2,3;
 4/5=5,16=3,69=1/1;
 5/5=2,38=5/2;
 7//1,2,3,16;
 1/6=1000,7=-1,18=20,19=15,26=2/3(-5);
 2/9=110/2;
 6/7=2,8=2,9=2,10=2,19=2,28=1/1;
 99/9=1/99;
 -----
 Title
 -----
 Symbolic Z-matrix:
 Charge =  0 Multiplicity = 2
 C                    -5.50559   1.11957   1.24715 
 C                    -4.17259   0.746     1.08947 
 C                    -6.50499   0.15064   1.24737 
 H                    -5.76541   2.16836   1.36873 
 C                    -3.82091  -0.59743   0.93008 
 H                    -3.40172   1.51354   1.08825 
 C                    -6.16795  -1.19087   1.08887 
 H                    -7.54572   0.44074   1.36971 
 C                    -4.83462  -1.56527   0.93018 
 H                    -6.94762  -1.94879   1.08774 
 H                    -4.60706  -2.62003   0.80727 
 C                    -2.3394   -0.93895   0.75563 
 C                    -1.98536  -2.44426   0.76236 
 H                    -1.97733  -0.49212  -0.1793 
 H                    -1.78736  -0.45858   1.56847 
 C                    -0.49028  -2.67865   0.60935 
 H                    -2.51381  -2.94544  -0.05218 
 H                    -2.32524  -2.89647   1.69733 
 C                     0.37467  -2.4236    1.67605 
 C                     1.74619  -2.62607   1.53288 
 H                    -0.01793  -2.06117   2.62321 
 C                     2.26059  -3.08874   0.32361 
 H                     2.41541  -2.42207   2.36506 
 C                     0.0315   -3.14007  -0.60167 
 C                     1.40248  -3.34638  -0.74317 
 H                     3.3304   -3.24716   0.21176 
 H                    -0.62825  -3.33805  -1.4433 
 H                     1.80266  -3.70603  -1.68798 
 O                    -1.43443   0.14132  -0.90288 
 O                    -0.06261   0.53256  -1.26027 
 H                     0.02435   1.32907  -0.70513 
 
 The following ModRedundant input section has been read:
 

 GradGradGradGradGradGradGradGradGradGradGradGradGradGradGradGradGradGrad
 Berny optimization.
 Initialization pass.
                           ----------------------------
                           !    Initial Parameters    !
                           ! (Angstroms and Degrees)  !
 --------------------------                            --------------------------
 ! Name  Definition              Value          Derivative Info.                !
 --------------------------------------------------------------------------------
 ! R1    R(1,2)                  1.3933         estimate D2E/DX2                !
 ! R2    R(1,3)                  1.392          estimate D2E/DX2                !
 ! R3    R(1,4)                  1.0873         estimate D2E/DX2                !
 ! R4    R(2,5)                  1.3978         estimate D2E/DX2                !
 ! R5    R(2,6)                  1.0878         estimate D2E/DX2                !
 ! R6    R(3,7)                  1.3923         estimate D2E/DX2                !
 ! R7    R(3,8)                  1.0873         estimate D2E/DX2                !
 ! R8    R(5,9)                  1.4015         estimate D2E/DX2                !
 ! R9    R(5,12)                 1.5303         estimate D2E/DX2                !
 ! R10   R(7,9)                  1.394          estimate D2E/DX2                !
 ! R11   R(7,10)                 1.0873         estimate D2E/DX2                !
 ! R12   R(9,11)                 1.086          estimate D2E/DX2                !
 ! R13   R(12,13)                1.5464         estimate D2E/DX2                !
 ! R14   R(12,14)                1.0977         estimate D2E/DX2                !
 ! R15   R(12,15)                1.0937         estimate D2E/DX2                !
 ! R16   R(13,16)                1.5211         estimate D2E/DX2                !
 ! R17   R(13,17)                1.0927         estimate D2E/DX2                !
 ! R18   R(13,18)                1.0928         estimate D2E/DX2                !
 ! R19   R(14,29)                1.1043         estimate D2E/DX2                !
 ! R20   R(16,19)                1.3968         estimate D2E/DX2                !
 ! R21   R(16,24)                1.397          estimate D2E/DX2                !
 ! R22   R(19,20)                1.3938         estimate D2E/DX2                !
 ! R23   R(19,21)                1.0875         estimate D2E/DX2                !
 ! R24   R(20,22)                1.3932         estimate D2E/DX2                !
 ! R25   R(20,23)                1.0872         estimate D2E/DX2                !
 ! R26   R(22,25)                1.3931         estimate D2E/DX2                !
 ! R27   R(22,26)                1.0872         estimate D2E/DX2                !
 ! R28   R(24,25)                1.3936         estimate D2E/DX2                !
 ! R29   R(24,27)                1.0876         estimate D2E/DX2                !
 ! R30   R(25,28)                1.0873         estimate D2E/DX2                !
 ! R31   R(29,30)                1.4706         estimate D2E/DX2                !
 ! R32   R(30,31)                0.9748         estimate D2E/DX2                !
 ! A1    A(2,1,3)              120.0184         estimate D2E/DX2                !
 ! A2    A(2,1,4)              119.9924         estimate D2E/DX2                !
 ! A3    A(3,1,4)              119.9891         estimate D2E/DX2                !
 ! A4    A(1,2,5)              120.75           estimate D2E/DX2                !
 ! A5    A(1,2,6)              119.2692         estimate D2E/DX2                !
 ! A6    A(5,2,6)              119.9806         estimate D2E/DX2                !
 ! A7    A(1,3,7)              119.794          estimate D2E/DX2                !
 ! A8    A(1,3,8)              120.0999         estimate D2E/DX2                !
 ! A9    A(7,3,8)              120.106          estimate D2E/DX2                !
 ! A10   A(2,5,9)              118.7968         estimate D2E/DX2                !
 ! A11   A(2,5,12)             118.1023         estimate D2E/DX2                !
 ! A12   A(9,5,12)             123.1001         estimate D2E/DX2                !
 ! A13   A(3,7,9)              120.2193         estimate D2E/DX2                !
 ! A14   A(3,7,10)             119.8787         estimate D2E/DX2                !
 ! A15   A(9,7,10)             119.9019         estimate D2E/DX2                !
 ! A16   A(5,9,7)              120.4214         estimate D2E/DX2                !
 ! A17   A(5,9,11)             121.2734         estimate D2E/DX2                !
 ! A18   A(7,9,11)             118.3052         estimate D2E/DX2                !
 ! A19   A(5,12,13)            116.0006         estimate D2E/DX2                !
 ! A20   A(5,12,14)            109.0008         estimate D2E/DX2                !
 ! A21   A(5,12,15)            107.8121         estimate D2E/DX2                !
 ! A22   A(13,12,14)           108.9322         estimate D2E/DX2                !
 ! A23   A(13,12,15)           107.9838         estimate D2E/DX2                !
 ! A24   A(14,12,15)           106.7222         estimate D2E/DX2                !
 ! A25   A(12,13,16)           111.9996         estimate D2E/DX2                !
 ! A26   A(12,13,17)           109.4218         estimate D2E/DX2                !
 ! A27   A(12,13,18)           109.5929         estimate D2E/DX2                !
 ! A28   A(16,13,17)           109.2508         estimate D2E/DX2                !
 ! A29   A(16,13,18)           109.148          estimate D2E/DX2                !
 ! A30   A(17,13,18)           107.3122         estimate D2E/DX2                !
 ! A31   A(12,14,29)           162.5047         estimate D2E/DX2                !
 ! A32   A(13,16,19)           120.2454         estimate D2E/DX2                !
 ! A33   A(13,16,24)           120.345          estimate D2E/DX2                !
 ! A34   A(19,16,24)           119.4076         estimate D2E/DX2                !
 ! A35   A(16,19,20)           120.2906         estimate D2E/DX2                !
 ! A36   A(16,19,21)           120.1614         estimate D2E/DX2                !
 ! A37   A(20,19,21)           119.5474         estimate D2E/DX2                !
 ! A38   A(19,20,22)           120.0486         estimate D2E/DX2                !
 ! A39   A(19,20,23)           119.9894         estimate D2E/DX2                !
 ! A40   A(22,20,23)           119.9619         estimate D2E/DX2                !
 ! A41   A(20,22,25)           119.9106         estimate D2E/DX2                !
 ! A42   A(20,22,26)           120.0651         estimate D2E/DX2                !
 ! A43   A(25,22,26)           120.0243         estimate D2E/DX2                !
 ! A44   A(16,24,25)           120.2869         estimate D2E/DX2                !
 ! A45   A(16,24,27)           120.2899         estimate D2E/DX2                !
 ! A46   A(25,24,27)           119.4229         estimate D2E/DX2                !
 ! A47   A(22,25,24)           120.0551         estimate D2E/DX2                !
 ! A48   A(22,25,28)           119.9923         estimate D2E/DX2                !
 ! A49   A(24,25,28)           119.9523         estimate D2E/DX2                !
 ! A50   A(14,29,30)           140.3913         estimate D2E/DX2                !
 ! A51   A(29,30,31)            99.3348         estimate D2E/DX2                !
 ! D1    D(3,1,2,5)              0.0086         estimate D2E/DX2                !
 ! D2    D(3,1,2,6)            179.823          estimate D2E/DX2                !
 ! D3    D(4,1,2,5)           -179.9095         estimate D2E/DX2                !
 ! D4    D(4,1,2,6)             -0.095          estimate D2E/DX2                !
 ! D5    D(2,1,3,7)             -0.0384         estimate D2E/DX2                !
 ! D6    D(2,1,3,8)           -179.9626         estimate D2E/DX2                !
 ! D7    D(4,1,3,7)            179.8796         estimate D2E/DX2                !
 ! D8    D(4,1,3,8)             -0.0445         estimate D2E/DX2                !
 ! D9    D(1,2,5,9)              0.0626         estimate D2E/DX2                !
 ! D10   D(1,2,5,12)           179.7402         estimate D2E/DX2                !
 ! D11   D(6,2,5,9)           -179.7505         estimate D2E/DX2                !
 ! D12   D(6,2,5,12)            -0.0729         estimate D2E/DX2                !
 ! D13   D(1,3,7,9)             -0.004          estimate D2E/DX2                !
 ! D14   D(1,3,7,10)          -179.9331         estimate D2E/DX2                !
 ! D15   D(8,3,7,9)            179.9201         estimate D2E/DX2                !
 ! D16   D(8,3,7,10)            -0.009          estimate D2E/DX2                !
 ! D17   D(2,5,9,7)             -0.105          estimate D2E/DX2                !
 ! D18   D(2,5,9,11)           179.867          estimate D2E/DX2                !
 ! D19   D(12,5,9,7)          -179.7655         estimate D2E/DX2                !
 ! D20   D(12,5,9,11)            0.2065         estimate D2E/DX2                !
 ! D21   D(2,5,12,13)          172.5645         estimate D2E/DX2                !
 ! D22   D(2,5,12,14)          -64.0865         estimate D2E/DX2                !
 ! D23   D(2,5,12,15)           51.3983         estimate D2E/DX2                !
 ! D24   D(9,5,12,13)           -7.7728         estimate D2E/DX2                !
 ! D25   D(9,5,12,14)          115.5763         estimate D2E/DX2                !
 ! D26   D(9,5,12,15)         -128.939          estimate D2E/DX2                !
 ! D27   D(3,7,9,5)              0.0766         estimate D2E/DX2                !
 ! D28   D(3,7,9,11)          -179.8962         estimate D2E/DX2                !
 ! D29   D(10,7,9,5)          -179.9943         estimate D2E/DX2                !
 ! D30   D(10,7,9,11)            0.033          estimate D2E/DX2                !
 ! D31   D(5,12,13,16)        -178.9207         estimate D2E/DX2                !
 ! D32   D(5,12,13,17)          59.7804         estimate D2E/DX2                !
 ! D33   D(5,12,13,18)         -57.6342         estimate D2E/DX2                !
 ! D34   D(14,12,13,16)         57.6944         estimate D2E/DX2                !
 ! D35   D(14,12,13,17)        -63.6044         estimate D2E/DX2                !
 ! D36   D(14,12,13,18)        178.981          estimate D2E/DX2                !
 ! D37   D(15,12,13,16)        -57.8464         estimate D2E/DX2                !
 ! D38   D(15,12,13,17)       -179.1452         estimate D2E/DX2                !
 ! D39   D(15,12,13,18)         63.4402         estimate D2E/DX2                !
 ! D40   D(5,12,14,29)         113.2238         estimate D2E/DX2                !
 ! D41   D(13,12,14,29)       -119.3118         estimate D2E/DX2                !
 ! D42   D(15,12,14,29)         -2.9608         estimate D2E/DX2                !
 ! D43   D(12,13,16,19)         73.9584         estimate D2E/DX2                !
 ! D44   D(12,13,16,24)       -105.5119         estimate D2E/DX2                !
 ! D45   D(17,13,16,19)       -164.6442         estimate D2E/DX2                !
 ! D46   D(17,13,16,24)         15.8855         estimate D2E/DX2                !
 ! D47   D(18,13,16,19)        -47.5843         estimate D2E/DX2                !
 ! D48   D(18,13,16,24)        132.9454         estimate D2E/DX2                !
 ! D49   D(12,14,29,30)         54.3215         estimate D2E/DX2                !
 ! D50   D(13,16,19,20)       -179.3953         estimate D2E/DX2                !
 ! D51   D(13,16,19,21)          0.3341         estimate D2E/DX2                !
 ! D52   D(24,16,19,20)          0.08           estimate D2E/DX2                !
 ! D53   D(24,16,19,21)        179.8093         estimate D2E/DX2                !
 ! D54   D(13,16,24,25)        179.5949         estimate D2E/DX2                !
 ! D55   D(13,16,24,27)         -0.1885         estimate D2E/DX2                !
 ! D56   D(19,16,24,25)          0.1202         estimate D2E/DX2                !
 ! D57   D(19,16,24,27)       -179.6632         estimate D2E/DX2                !
 ! D58   D(16,19,20,22)         -0.2002         estimate D2E/DX2                !
 ! D59   D(16,19,20,23)        179.7476         estimate D2E/DX2                !
 ! D60   D(21,19,20,22)       -179.9312         estimate D2E/DX2                !
 ! D61   D(21,19,20,23)          0.0166         estimate D2E/DX2                !
 ! D62   D(19,20,22,25)          0.1197         estimate D2E/DX2                !
 ! D63   D(19,20,22,26)       -179.9752         estimate D2E/DX2                !
 ! D64   D(23,20,22,25)       -179.828          estimate D2E/DX2                !
 ! D65   D(23,20,22,26)          0.077          estimate D2E/DX2                !
 ! D66   D(20,22,25,24)          0.08           estimate D2E/DX2                !
 ! D67   D(20,22,25,28)        179.906          estimate D2E/DX2                !
 ! D68   D(26,22,25,24)       -179.8251         estimate D2E/DX2                !
 ! D69   D(26,22,25,28)          0.0009         estimate D2E/DX2                !
 ! D70   D(16,24,25,22)         -0.2006         estimate D2E/DX2                !
 ! D71   D(16,24,25,28)        179.9734         estimate D2E/DX2                !
 ! D72   D(27,24,25,22)        179.5847         estimate D2E/DX2                !
 ! D73   D(27,24,25,28)         -0.2413         estimate D2E/DX2                !
 ! D74   D(14,29,30,31)        -91.3152         estimate D2E/DX2                !
 --------------------------------------------------------------------------------
 Trust Radius=3.00D-01 FncErr=1.00D-05 GrdErr=1.00D-04 EigMax=2.50D+02 EigMin=1.00D-04
 Number of steps in this run=    186 maximum allowed number of steps=    186.
 GradGradGradGradGradGradGradGradGradGradGradGradGradGradGradGradGradGrad

                          Input orientation:                          
 ---------------------------------------------------------------------
 Center     Atomic      Atomic             Coordinates (Angstroms)
 Number     Number       Type             X           Y           Z
 ---------------------------------------------------------------------
      1          6           0       -5.505590    1.119570    1.247150
      2          6           0       -4.172590    0.746000    1.089470
      3          6           0       -6.504990    0.150640    1.247370
      4          1           0       -5.765410    2.168360    1.368730
      5          6           0       -3.820910   -0.597430    0.930080
      6          1           0       -3.401720    1.513540    1.088250
      7          6           0       -6.167950   -1.190870    1.088870
      8          1           0       -7.545720    0.440740    1.369710
      9          6           0       -4.834620   -1.565270    0.930180
     10          1           0       -6.947620   -1.948790    1.087740
     11          1           0       -4.607060   -2.620030    0.807270
     12          6           0       -2.339400   -0.938950    0.755630
     13          6           0       -1.985360   -2.444260    0.762360
     14          1           0       -1.977330   -0.492120   -0.179300
     15          1           0       -1.787360   -0.458580    1.568470
     16          6           0       -0.490280   -2.678650    0.609350
     17          1           0       -2.513810   -2.945440   -0.052180
     18          1           0       -2.325240   -2.896470    1.697330
     19          6           0        0.374670   -2.423600    1.676050
     20          6           0        1.746190   -2.626070    1.532880
     21          1           0       -0.017930   -2.061170    2.623210
     22          6           0        2.260590   -3.088740    0.323610
     23          1           0        2.415410   -2.422070    2.365060
     24          6           0        0.031500   -3.140070   -0.601670
     25          6           0        1.402480   -3.346380   -0.743170
     26          1           0        3.330400   -3.247160    0.211760
     27          1           0       -0.628250   -3.338050   -1.443300
     28          1           0        1.802660   -3.706030   -1.687980
     29          8           0       -1.434430    0.141320   -0.902880
     30          8           0       -0.062610    0.532560   -1.260270
     31          1           0        0.024350    1.329070   -0.705130
 ---------------------------------------------------------------------
                    Distance matrix (angstroms):
                    1          2          3          4          5
     1  C    0.000000
     2  C    1.393308   0.000000
     3  C    1.391986   2.412359   0.000000
     4  H    1.087313   2.153641   2.152417   0.000000
     5  C    2.426266   1.397815   2.804384   3.409265   0.000000
     6  H    2.146330   1.087823   3.393096   2.468702   2.157993
     7  C    2.408715   2.780814   1.392253   3.394818   2.426104
     8  H    2.153593   3.398489   1.087310   2.480761   3.891694
     9  C    2.785505   2.409487   2.415594   3.872814   1.401543
    10  H    3.394068   3.868163   2.151513   4.292726   3.409889
    11  H    3.871106   3.405666   3.387099   4.958396   2.173482
    12  C    3.808393   2.512189   4.333723   4.665706   1.530340
    13  C    5.032686   3.881847   5.234099   5.994391   2.609244
    14  H    4.132907   2.821681   4.790431   4.880994   2.154206
    15  H    4.052041   2.714733   4.767629   4.771330   2.135918
    16  C    6.323496   5.051549   6.677476   7.203968   3.940487
    17  H    5.211843   4.204955   5.215751   6.224375   2.861205
    18  H    5.142554   4.129138   5.192076   6.131497   2.848032
    19  C    6.878624   5.573869   7.358002   7.673404   4.636190
    20  C    8.166993   6.826377   8.710546   8.912780   5.955783
    21  H    6.490382   5.243449   6.990493   7.245424   4.412695
    22  C    8.881236   7.528451   9.390544   9.651220   6.599930
    23  H    8.748439   7.420616   9.351022   9.433480   6.654334
    24  C    7.226481   5.969578   7.548074   8.103460   4.863367
    25  C    8.463304   7.154547   8.872400   9.287148   6.135169
    26  H    9.910352   8.544622  10.457171  10.648953   7.660175
    27  H    7.134237   5.971326   7.344844   8.038562   4.830839
    28  H    9.236445   7.952258   9.618068  10.056223   6.938456
    29  O    4.706798   3.439857   5.507653   5.294005   3.098513
    30  O    6.021442   4.739069   6.923755   6.489176   4.494366
    31  H    5.868179   4.601615   6.916157   6.206982   4.601232
                    6          7          8          9         10
     6  H    0.000000
     7  C    3.868574   0.000000
     8  H    4.289855   2.153897   0.000000
     9  C    3.399597   1.393961   3.401077   0.000000
    10  H    4.955919   1.087350   2.479331   2.153296   0.000000
    11  H    4.314881   2.134988   4.280231   1.086006   2.451010
    12  C    2.693300   3.851274   5.420923   2.578540   4.729246
    13  C    4.216214   4.378545   6.293624   2.986481   4.997538
    14  H    2.767353   4.433712   5.854624   3.247569   5.332078
    15  H    2.593458   4.467195   5.831551   3.304235   5.392598
    16  C    5.126430   5.888919   7.751643   4.496203   6.516041
    17  H    4.687373   4.211087   6.229615   2.873336   4.685232
    18  H    4.580172   4.248025   6.204653   2.942380   4.757740
    19  C    5.487049   6.683583   8.427981   5.331956   7.361215
    20  C    6.620804   8.055467   9.786293   6.692952   8.731506
    21  H    5.156034   6.397997   8.031092   5.129597   7.098655
    22  C    7.336717   8.673397  10.474506   7.282231   9.309915
    23  H    7.138506   8.764621  10.412037   7.440156   9.461600
    24  C    6.024858   6.714945   8.609460   5.339071   7.278830
    25  C    7.074833   8.081708   9.943683   6.698796   8.661966
    26  H    8.291799   9.757884  11.542592   8.367343  10.396673
    27  H    6.135047   6.458370   8.369210   5.144872   6.947708
    28  H    7.876353   8.807244  10.674145   7.449235   9.346653
    29  O    3.117341   5.305470   6.527035   4.223014   6.223053
    30  O    4.198514   6.764898   7.932349   5.654294   7.685936
    31  H    3.871459   6.921930   7.899370   5.887362   7.909938
                   11         12         13         14         15
    11  H    0.000000
    12  C    2.823292   0.000000
    13  C    2.627969   1.546398   0.000000
    14  H    3.523748   1.097655   2.167404   0.000000
    15  H    3.633456   1.093715   2.152195   1.758384   0.000000
    16  C    4.121952   2.543069   1.521057   2.759384   2.744274
    17  H    2.286097   2.170018   1.092665   2.514508   3.055930
    18  H    2.464818   2.172299   1.092786   3.069801   2.499845
    19  C    5.060731   3.227621   2.530810   3.564385   2.923568
    20  C    6.394555   4.488044   3.814606   4.620596   4.145510
    21  H    4.966898   3.183780   2.735014   3.762343   2.609915
    22  C    6.900597   5.095895   4.316937   4.995530   4.985310
    23  H    7.195900   5.234322   4.683579   5.430897   4.706711
    24  C    4.875633   3.508327   2.532282   3.350438   3.899763
    25  C    6.248681   4.695081   3.815482   4.459581   4.884480
    26  H    7.984435   6.145751   5.404176   5.992927   5.984004
    27  H    4.627261   3.676820   2.739625   3.393675   4.325002
    28  H    6.963489   5.548389   4.684584   5.185909   5.834264
    29  O    4.540402   2.176375   3.124383   1.104334   2.567491
    30  O    5.904708   3.378308   4.080375   2.425823   3.458163
    31  H    6.271579   3.586788   4.520009   2.756801   3.412806
                   16         17         18         19         20
    16  C    0.000000
    17  H    2.145570   0.000000
    18  H    2.144347   1.760324   0.000000
    19  C    1.396796   3.406231   2.741090   0.000000
    20  C    2.420221   4.556535   4.083712   1.393757   0.000000
    21  H    2.158710   3.764181   2.622720   1.087475   2.149430
    22  C    2.795909   4.791310   4.791024   2.414166   1.393199
    23  H    3.404612   5.514905   4.810892   2.153917   1.087196
    24  C    1.397044   2.611211   3.301358   2.412282   2.785796
    25  C    2.420271   3.996942   4.478209   2.785775   2.411926
    26  H    3.883153   5.857942   5.858000   3.399814   2.154259
    27  H    2.160374   2.375856   3.596988   3.401825   3.873310
    28  H    3.404528   4.678274   5.399562   3.873045   3.397564
    29  O    3.336239   3.378881   4.096682   4.062332   4.869057
    30  O    3.740354   4.423160   5.062128   4.189519   4.588070
    31  H    4.249061   5.013984   5.398849   4.458169   4.859687
                   21         22         23         24         25
    21  H    0.000000
    22  C    3.396427   0.000000
    23  H    2.473466   2.153122   0.000000
    24  C    3.400929   2.414046   3.872988   0.000000
    25  C    3.873221   1.393108   3.397274   1.393618   0.000000
    26  H    4.293364   1.087245   2.480863   3.399394   2.153744
    27  H    4.305742   3.395515   4.960493   1.087569   2.148049
    28  H    4.960491   2.153425   4.295480   2.153460   1.087271
    29  O    4.392123   5.058729   5.663185   3.606549   4.498624
    30  O    4.670209   4.584730   5.292772   3.732402   4.178523
    31  H    4.751143   5.057284   5.405024   4.470343   4.874477
                   26         27         28         29         30
    26  H    0.000000
    27  H    4.291666   0.000000
    28  H    2.480638   2.470749   0.000000
    29  O    5.952128   3.612201   5.088933   0.000000
    30  O    5.288258   3.916002   4.650571   1.470608   0.000000
    31  H    5.719487   4.769989   5.429605   1.891532   0.974767
                   31
    31  H    0.000000
 Stoichiometry    C14H15O2(2)
 Framework group  C1[X(C14H15O2)]
 Deg. of freedom    87
 Full point group                 C1      NOp   1
 Largest Abelian subgroup         C1      NOp   1
 Largest concise Abelian subgroup C1      NOp   1
                         Standard orientation:                         
 ---------------------------------------------------------------------
 Center     Atomic      Atomic             Coordinates (Angstroms)
 Number     Number       Type             X           Y           Z
 ---------------------------------------------------------------------
      1          6           0       -4.261862    0.742364    0.624979
      2          6           0       -2.875122    0.858081    0.694734
      3          6           0       -4.838118   -0.358390   -0.002631
      4          1           0       -4.894121    1.512749    1.059726
      5          6           0       -2.047340   -0.121948    0.139569
      6          1           0       -2.437763    1.724816    1.185497
      7          6           0       -4.024679   -1.341180   -0.560133
      8          1           0       -5.920151   -0.449729   -0.058362
      9          6           0       -2.637212   -1.225634   -0.491501
     10          1           0       -4.473354   -2.201069   -1.051673
     11          1           0       -2.032491   -2.009354   -0.938161
     12          6           0       -0.532688    0.069200    0.245555
     13          6           0        0.335316   -1.121984   -0.222419
     14          1           0       -0.244863    0.963980   -0.321340
     15          1           0       -0.293366    0.270207    1.293664
     16          6           0        1.821398   -0.845166   -0.053465
     17          1           0        0.125507   -1.333548   -1.273674
     18          1           0        0.069950   -2.015303    0.348320
     19          6           0        2.400417   -0.863367    1.217536
     20          6           0        3.759512   -0.597470    1.374762
     21          1           0        1.791873   -1.081055    2.092115
     22          6           0        4.548610   -0.315892    0.261639
     23          1           0        4.204274   -0.608903    2.366755
     24          6           0        2.617087   -0.559726   -1.165731
     25          6           0        3.976860   -0.297995   -1.008610
     26          1           0        5.608925   -0.108829    0.383939
     27          1           0        2.180069   -0.536375   -2.161360
     28          1           0        4.591132   -0.076901   -1.878061
     29          8           0        0.117504    1.973909   -0.582661
     30          8           0        1.289403    2.841654   -0.391980
     31          1           0        1.016053    3.299463    0.424023
 ---------------------------------------------------------------------
 Rotational constants (GHZ):           1.1266674           0.2466222           0.2244092
 Standard basis: 6-311+G(2df,2p) (5D, 7F)
 There are   759 symmetry adapted cartesian basis functions of A   symmetry.
 There are   679 symmetry adapted basis functions of A   symmetry.
   679 basis functions,   997 primitive gaussians,   759 cartesian basis functions
    58 alpha electrons       57 beta electrons
       nuclear repulsion energy      1002.2100974552 Hartrees.
 NAtoms=   31 NActive=   31 NUniq=   31 SFac= 1.00D+00 NAtFMM=   60 NAOKFM=F Big=F
 Integral buffers will be    131072 words long.
 Raffenetti 2 integral format.
 Two-electron integral symmetry is turned on.
 One-electron integrals computed using PRISM.
 NBasis=   679 RedAO= T EigKep=  1.06D-06  NBF=   679
 NBsUse=   678 1.00D-06 EigRej=  4.58D-07 NBFU=   678
 ExpMin= 4.38D-02 ExpMax= 8.59D+03 ExpMxC= 1.30D+03 IAcc=2 IRadAn=         4 AccDes= 0.00D+00
 Harris functional with IExCor= 1009 and IRadAn=       4 diagonalized for initial guess.
 HarFok:  IExCor= 1009 AccDes= 0.00D+00 IRadAn=         4 IDoV= 1 UseB2=F ITyADJ=14
 ICtDFT=  3500011 ScaDFX=  1.000000  1.000000  1.000000  1.000000
 FoFCou: FMM=F IPFlag=           0 FMFlag=      100000 FMFlg1=           0
         NFxFlg=           0 DoJE=T BraDBF=F KetDBF=T FulRan=T
         wScrn=  0.000000 ICntrl=       500 IOpCl=  0 I1Cent=   200000004 NGrid=           0
         NMat0=    1 NMatS0=      1 NMatT0=    0 NMatD0=    1 NMtDS0=    0 NMtDT0=    0
 Petite list used in FoFCou.
 Initial guess <Sx>= 0.0000 <Sy>= 0.0000 <Sz>= 0.5000 <S**2>= 0.7500 S= 0.5000
 Requested convergence on RMS density matrix=1.00D-08 within 128 cycles.
 Requested convergence on MAX density matrix=1.00D-06.
 Requested convergence on             energy=1.00D-06.
 No special actions if energy rises.
 Restarting incremental Fock formation.
 SCF Done:  E(UM062X) =  -692.676691332     A.U. after   23 cycles
            NFock= 23  Conv=0.23D-08     -V/T= 2.0041
 <Sx>= 0.0000 <Sy>= 0.0000 <Sz>= 0.5000 <S**2>= 0.7623 S= 0.5061
 <L.S>= 0.000000000000E+00
 Annihilation of the first spin contaminant:
 S**2 before annihilation     0.7623,   after     0.7501

 **********************************************************************

            Population analysis using the SCF density.

 **********************************************************************

 Orbital symmetries:
 Alpha Orbitals:
       Occupied  (A) (A) (A) (A) (A) (A) (A) (A) (A) (A) (A) (A)
                 (A) (A) (A) (A) (A) (A) (A) (A) (A) (A) (A) (A)
                 (A) (A) (A) (A) (A) (A) (A) (A) (A) (A) (A) (A)
                 (A) (A) (A) (A) (A) (A) (A) (A) (A) (A) (A) (A)
                 (A) (A) (A) (A) (A) (A) (A) (A) (A) (A)
       Virtual   (A) (A) (A) (A) (A) (A) (A) (A) (A) (A) (A) (A)
                 (A) (A) (A) (A) (A) (A) (A) (A) (A) (A) (A) (A)
                 (A) (A) (A) (A) (A) (A) (A) (A) (A) (A) (A) (A)
                 (A) (A) (A) (A) (A) (A) (A) (A) (A) (A) (A) (A)
                 (A) (A) (A) (A) (A) (A) (A) (A) (A) (A) (A) (A)
                 (A) (A) (A) (A) (A) (A) (A) (A) (A) (A) (A) (A)
                 (A) (A) (A) (A) (A) (A) (A) (A) (A) (A) (A) (A)
                 (A) (A) (A) (A) (A) (A) (A) (A) (A) (A) (A) (A)
                 (A) (A) (A) (A) (A) (A) (A) (A) (A) (A) (A) (A)
                 (A) (A) (A) (A) (A) (A) (A) (A) (A) (A) (A) (A)
                 (A) (A) (A) (A) (A) (A) (A) (A) (A) (A) (A) (A)
                 (A) (A) (A) (A) (A) (A) (A) (A) (A) (A) (A) (A)
                 (A) (A) (A) (A) (A) (A) (A) (A) (A) (A) (A) (A)
                 (A) (A) (A) (A) (A) (A) (A) (A) (A) (A) (A) (A)
                 (A) (A) (A) (A) (A) (A) (A) (A) (A) (A) (A) (A)
                 (A) (A) (A) (A) (A) (A) (A) (A) (A) (A) (A) (A)
                 (A) (A) (A) (A) (A) (A) (A) (A) (A) (A) (A) (A)
                 (A) (A) (A) (A) (A) (A) (A) (A) (A) (A) (A) (A)
                 (A) (A) (A) (A) (A) (A) (A) (A) (A) (A) (A) (A)
                 (A) (A) (A) (A) (A) (A) (A) (A) (A) (A) (A) (A)
                 (A) (A) (A) (A) (A) (A) (A) (A) (A) (A) (A) (A)
                 (A) (A) (A) (A) (A) (A) (A) (A) (A) (A) (A) (A)
                 (A) (A) (A) (A) (A) (A) (A) (A) (A) (A) (A) (A)
                 (A) (A) (A) (A) (A) (A) (A) (A) (A) (A) (A) (A)
                 (A) (A) (A) (A) (A) (A) (A) (A) (A) (A) (A) (A)
                 (A) (A) (A) (A) (A) (A) (A) (A) (A) (A) (A) (A)
                 (A) (A) (A) (A) (A) (A) (A) (A) (A) (A) (A) (A)
                 (A) (A) (A) (A) (A) (A) (A) (A) (A) (A) (A) (A)
                 (A) (A) (A) (A) (A) (A) (A) (A) (A) (A) (A) (A)
                 (A) (A) (A) (A) (A) (A) (A) (A) (A) (A) (A) (A)
                 (A) (A) (A) (A) (A) (A) (A) (A) (A) (A) (A) (A)
                 (A) (A) (A) (A) (A) (A) (A) (A) (A) (A) (A) (A)
                 (A) (A) (A) (A) (A) (A) (A) (A) (A) (A) (A) (A)
                 (A) (A) (A) (A) (A) (A) (A) (A) (A) (A) (A) (A)
                 (A) (A) (A) (A) (A) (A) (A) (A) (A) (A) (A) (A)
                 (A) (A) (A) (A) (A) (A) (A) (A) (A) (A) (A) (A)
                 (A) (A) (A) (A) (A) (A) (A) (A) (A) (A) (A) (A)
                 (A) (A) (A) (A) (A) (A) (A) (A) (A) (A) (A) (A)
                 (A) (A) (A) (A) (A) (A) (A) (A) (A) (A) (A) (A)
                 (A) (A) (A) (A) (A) (A) (A) (A) (A) (A) (A) (A)
                 (A) (A) (A) (A) (A) (A) (A) (A) (A) (A) (A) (A)
                 (A) (A) (A) (A) (A) (A) (A) (A) (A) (A) (A) (A)
                 (A) (A) (A) (A) (A) (A) (A) (A) (A) (A) (A) (A)
                 (A) (A) (A) (A) (A) (A) (A) (A) (A) (A) (A) (A)
                 (A) (A) (A) (A) (A) (A) (A) (A) (A) (A) (A) (A)
                 (A) (A) (A) (A) (A) (A) (A) (A) (A) (A) (A) (A)
                 (A) (A) (A) (A) (A) (A) (A) (A) (A) (A) (A) (A)
                 (A) (A) (A) (A) (A) (A) (A) (A) (A) (A) (A) (A)
                 (A) (A) (A) (A) (A) (A) (A) (A) (A) (A) (A) (A)
                 (A) (A) (A) (A) (A) (A) (A) (A) (A) (A) (A) (A)
                 (A) (A) (A) (A) (A) (A) (A) (A) (A) (A) (A) (A)
                 (A) (A) (A) (A) (A) (A) (A) (A)
 Beta  Orbitals:
       Occupied  (A) (A) (A) (A) (A) (A) (A) (A) (A) (A) (A) (A)
                 (A) (A) (A) (A) (A) (A) (A) (A) (A) (A) (A) (A)
                 (A) (A) (A) (A) (A) (A) (A) (A) (A) (A) (A) (A)
                 (A) (A) (A) (A) (A) (A) (A) (A) (A) (A) (A) (A)
                 (A) (A) (A) (A) (A) (A) (A) (A) (A)
       Virtual   (A) (A) (A) (A) (A) (A) (A) (A) (A) (A) (A) (A)
                 (A) (A) (A) (A) (A) (A) (A) (A) (A) (A) (A) (A)
                 (A) (A) (A) (A) (A) (A) (A) (A) (A) (A) (A) (A)
                 (A) (A) (A) (A) (A) (A) (A) (A) (A) (A) (A) (A)
                 (A) (A) (A) (A) (A) (A) (A) (A) (A) (A) (A) (A)
                 (A) (A) (A) (A) (A) (A) (A) (A) (A) (A) (A) (A)
                 (A) (A) (A) (A) (A) (A) (A) (A) (A) (A) (A) (A)
                 (A) (A) (A) (A) (A) (A) (A) (A) (A) (A) (A) (A)
                 (A) (A) (A) (A) (A) (A) (A) (A) (A) (A) (A) (A)
                 (A) (A) (A) (A) (A) (A) (A) (A) (A) (A) (A) (A)
                 (A) (A) (A) (A) (A) (A) (A) (A) (A) (A) (A) (A)
                 (A) (A) (A) (A) (A) (A) (A) (A) (A) (A) (A) (A)
                 (A) (A) (A) (A) (A) (A) (A) (A) (A) (A) (A) (A)
                 (A) (A) (A) (A) (A) (A) (A) (A) (A) (A) (A) (A)
                 (A) (A) (A) (A) (A) (A) (A) (A) (A) (A) (A) (A)
                 (A) (A) (A) (A) (A) (A) (A) (A) (A) (A) (A) (A)
                 (A) (A) (A) (A) (A) (A) (A) (A) (A) (A) (A) (A)
                 (A) (A) (A) (A) (A) (A) (A) (A) (A) (A) (A) (A)
                 (A) (A) (A) (A) (A) (A) (A) (A) (A) (A) (A) (A)
                 (A) (A) (A) (A) (A) (A) (A) (A) (A) (A) (A) (A)
                 (A) (A) (A) (A) (A) (A) (A) (A) (A) (A) (A) (A)
                 (A) (A) (A) (A) (A) (A) (A) (A) (A) (A) (A) (A)
                 (A) (A) (A) (A) (A) (A) (A) (A) (A) (A) (A) (A)
                 (A) (A) (A) (A) (A) (A) (A) (A) (A) (A) (A) (A)
                 (A) (A) (A) (A) (A) (A) (A) (A) (A) (A) (A) (A)
                 (A) (A) (A) (A) (A) (A) (A) (A) (A) (A) (A) (A)
                 (A) (A) (A) (A) (A) (A) (A) (A) (A) (A) (A) (A)
                 (A) (A) (A) (A) (A) (A) (A) (A) (A) (A) (A) (A)
                 (A) (A) (A) (A) (A) (A) (A) (A) (A) (A) (A) (A)
                 (A) (A) (A) (A) (A) (A) (A) (A) (A) (A) (A) (A)
                 (A) (A) (A) (A) (A) (A) (A) (A) (A) (A) (A) (A)
                 (A) (A) (A) (A) (A) (A) (A) (A) (A) (A) (A) (A)
                 (A) (A) (A) (A) (A) (A) (A) (A) (A) (A) (A) (A)
                 (A) (A) (A) (A) (A) (A) (A) (A) (A) (A) (A) (A)
                 (A) (A) (A) (A) (A) (A) (A) (A) (A) (A) (A) (A)
                 (A) (A) (A) (A) (A) (A) (A) (A) (A) (A) (A) (A)
                 (A) (A) (A) (A) (A) (A) (A) (A) (A) (A) (A) (A)
                 (A) (A) (A) (A) (A) (A) (A) (A) (A) (A) (A) (A)
                 (A) (A) (A) (A) (A) (A) (A) (A) (A) (A) (A) (A)
                 (A) (A) (A) (A) (A) (A) (A) (A) (A) (A) (A) (A)
                 (A) (A) (A) (A) (A) (A) (A) (A) (A) (A) (A) (A)
                 (A) (A) (A) (A) (A) (A) (A) (A) (A) (A) (A) (A)
                 (A) (A) (A) (A) (A) (A) (A) (A) (A) (A) (A) (A)
                 (A) (A) (A) (A) (A) (A) (A) (A) (A) (A) (A) (A)
                 (A) (A) (A) (A) (A) (A) (A) (A) (A) (A) (A) (A)
                 (A) (A) (A) (A) (A) (A) (A) (A) (A) (A) (A) (A)
                 (A) (A) (A) (A) (A) (A) (A) (A) (A) (A) (A) (A)
                 (A) (A) (A) (A) (A) (A) (A) (A) (A) (A) (A) (A)
                 (A) (A) (A) (A) (A) (A) (A) (A) (A) (A) (A) (A)
                 (A) (A) (A) (A) (A) (A) (A) (A) (A) (A) (A) (A)
                 (A) (A) (A) (A) (A) (A) (A) (A) (A) (A) (A) (A)
                 (A) (A) (A) (A) (A) (A) (A) (A) (A)
 The electronic state is 2-A.
 Alpha  occ. eigenvalues --  -19.70373 -19.69613 -10.56219 -10.55380 -10.55146
 Alpha  occ. eigenvalues --  -10.54985 -10.54933 -10.54880 -10.54861 -10.54798
 Alpha  occ. eigenvalues --  -10.54730 -10.54298 -10.54181 -10.54122 -10.53984
 Alpha  occ. eigenvalues --  -10.53962  -1.24315  -1.03923  -0.97055  -0.96232
 Alpha  occ. eigenvalues --   -0.90151  -0.85900  -0.84820  -0.84109  -0.80750
 Alpha  occ. eigenvalues --   -0.74423  -0.69418  -0.68897  -0.67918  -0.66378
 Alpha  occ. eigenvalues --   -0.62746  -0.59522  -0.58539  -0.57215  -0.54059
 Alpha  occ. eigenvalues --   -0.52933  -0.52861  -0.52464  -0.52098  -0.49675
 Alpha  occ. eigenvalues --   -0.49200  -0.49040  -0.48352  -0.46204  -0.44740
 Alpha  occ. eigenvalues --   -0.44229  -0.42898  -0.41139  -0.41004  -0.40692
 Alpha  occ. eigenvalues --   -0.39684  -0.39256  -0.38891  -0.34474  -0.31488
 Alpha  occ. eigenvalues --   -0.30698  -0.29946  -0.28758
 Alpha virt. eigenvalues --    0.00162   0.00868   0.01197   0.01381   0.01572
 Alpha virt. eigenvalues --    0.01795   0.02348   0.02590   0.02659   0.03210
 Alpha virt. eigenvalues --    0.04105   0.04224   0.04674   0.05666   0.06094
 Alpha virt. eigenvalues --    0.06731   0.06790   0.07671   0.08198   0.08603
 Alpha virt. eigenvalues --    0.08818   0.09123   0.10100   0.11003   0.11303
 Alpha virt. eigenvalues --    0.11944   0.12306   0.12566   0.13116   0.13313
 Alpha virt. eigenvalues --    0.14273   0.14466   0.14860   0.15561   0.15784
 Alpha virt. eigenvalues --    0.16025   0.16292   0.16641   0.17222   0.17370
 Alpha virt. eigenvalues --    0.17661   0.18173   0.18465   0.19038   0.19318
 Alpha virt. eigenvalues --    0.19894   0.19964   0.20414   0.20838   0.21064
 Alpha virt. eigenvalues --    0.21096   0.21733   0.21916   0.22017   0.22438
 Alpha virt. eigenvalues --    0.22637   0.22771   0.23126   0.23606   0.23824
 Alpha virt. eigenvalues --    0.24091   0.24358   0.24884   0.25226   0.25443
 Alpha virt. eigenvalues --    0.26069   0.26399   0.26734   0.26997   0.27485
 Alpha virt. eigenvalues --    0.27962   0.28205   0.28536   0.28900   0.30104
 Alpha virt. eigenvalues --    0.30646   0.31130   0.31568   0.32057   0.32198
 Alpha virt. eigenvalues --    0.32800   0.34349   0.35036   0.35519   0.35907
 Alpha virt. eigenvalues --    0.36190   0.36793   0.37330   0.38355   0.38645
 Alpha virt. eigenvalues --    0.39912   0.40861   0.41698   0.42631   0.44456
 Alpha virt. eigenvalues --    0.45935   0.46530   0.47622   0.49702   0.51992
 Alpha virt. eigenvalues --    0.52516   0.52717   0.53346   0.53894   0.54410
 Alpha virt. eigenvalues --    0.54853   0.54947   0.55371   0.56105   0.56381
 Alpha virt. eigenvalues --    0.56561   0.56670   0.57275   0.57695   0.57815
 Alpha virt. eigenvalues --    0.58345   0.58743   0.59546   0.61251   0.61634
 Alpha virt. eigenvalues --    0.62413   0.63181   0.63844   0.64112   0.65057
 Alpha virt. eigenvalues --    0.65288   0.65969   0.66024   0.66634   0.66813
 Alpha virt. eigenvalues --    0.67515   0.67590   0.67653   0.68333   0.68505
 Alpha virt. eigenvalues --    0.68826   0.69069   0.69718   0.70181   0.70690
 Alpha virt. eigenvalues --    0.71188   0.71587   0.71780   0.72143   0.72638
 Alpha virt. eigenvalues --    0.73238   0.73329   0.73646   0.73947   0.74324
 Alpha virt. eigenvalues --    0.74958   0.75072   0.75844   0.76230   0.77206
 Alpha virt. eigenvalues --    0.78400   0.78889   0.79460   0.80521   0.81586
 Alpha virt. eigenvalues --    0.81639   0.82090   0.82911   0.83605   0.83895
 Alpha virt. eigenvalues --    0.84705   0.85135   0.85623   0.86283   0.86786
 Alpha virt. eigenvalues --    0.87818   0.88731   0.89204   0.89738   0.90889
 Alpha virt. eigenvalues --    0.92419   0.93159   0.94467   0.95644   0.96369
 Alpha virt. eigenvalues --    0.97984   0.98497   0.99999   1.00443   1.01210
 Alpha virt. eigenvalues --    1.01745   1.02509   1.03732   1.04373   1.04929
 Alpha virt. eigenvalues --    1.05470   1.06357   1.07939   1.08631   1.09104
 Alpha virt. eigenvalues --    1.09449   1.10282   1.11238   1.12302   1.12850
 Alpha virt. eigenvalues --    1.14064   1.14415   1.14860   1.15622   1.16436
 Alpha virt. eigenvalues --    1.16696   1.17956   1.18959   1.19342   1.20902
 Alpha virt. eigenvalues --    1.21946   1.22798   1.23169   1.23613   1.24481
 Alpha virt. eigenvalues --    1.25813   1.27144   1.27761   1.28179   1.28652
 Alpha virt. eigenvalues --    1.30667   1.30976   1.31742   1.32650   1.33202
 Alpha virt. eigenvalues --    1.33574   1.34361   1.34831   1.35185   1.36083
 Alpha virt. eigenvalues --    1.37105   1.37589   1.38200   1.38424   1.38924
 Alpha virt. eigenvalues --    1.39789   1.40240   1.41088   1.41461   1.41595
 Alpha virt. eigenvalues --    1.43375   1.43642   1.44079   1.45022   1.46419
 Alpha virt. eigenvalues --    1.46970   1.47574   1.48085   1.48530   1.49763
 Alpha virt. eigenvalues --    1.49949   1.50531   1.51330   1.51716   1.53133
 Alpha virt. eigenvalues --    1.54832   1.55585   1.56184   1.57406   1.59080
 Alpha virt. eigenvalues --    1.60916   1.63428   1.63937   1.65682   1.67370
 Alpha virt. eigenvalues --    1.67431   1.68418   1.69181   1.70558   1.71621
 Alpha virt. eigenvalues --    1.72439   1.73170   1.73924   1.74872   1.75280
 Alpha virt. eigenvalues --    1.75977   1.76334   1.77211   1.78056   1.79625
 Alpha virt. eigenvalues --    1.81824   1.83022   1.84123   1.86347   1.88778
 Alpha virt. eigenvalues --    1.89382   1.92931   1.97275   2.02662   2.03046
 Alpha virt. eigenvalues --    2.03499   2.03839   2.04619   2.05777   2.07565
 Alpha virt. eigenvalues --    2.07839   2.14270   2.20449   2.23563   2.25107
 Alpha virt. eigenvalues --    2.28767   2.34229   2.44965   2.49255   2.52898
 Alpha virt. eigenvalues --    2.54398   2.56040   2.56645   2.57148   2.60236
 Alpha virt. eigenvalues --    2.61215   2.62758   2.63484   2.65020   2.66674
 Alpha virt. eigenvalues --    2.66896   2.67742   2.69120   2.69708   2.72925
 Alpha virt. eigenvalues --    2.73644   2.74766   2.75655   2.76687   2.77231
 Alpha virt. eigenvalues --    2.77322   2.77850   2.78485   2.79437   2.79661
 Alpha virt. eigenvalues --    2.80159   2.80987   2.81199   2.81450   2.82083
 Alpha virt. eigenvalues --    2.83314   2.84024   2.84550   2.85038   2.85327
 Alpha virt. eigenvalues --    2.86147   2.86992   2.87832   2.88454   2.88576
 Alpha virt. eigenvalues --    2.89257   2.89309   2.89902   2.90307   2.90818
 Alpha virt. eigenvalues --    2.90993   2.91862   2.92825   2.93245   2.93518
 Alpha virt. eigenvalues --    2.95373   2.95779   2.96782   2.97149   2.97855
 Alpha virt. eigenvalues --    2.99235   2.99712   3.02533   3.03362   3.05146
 Alpha virt. eigenvalues --    3.07472   3.09066   3.10423   3.11631   3.12041
 Alpha virt. eigenvalues --    3.12788   3.13766   3.14606   3.15358   3.16381
 Alpha virt. eigenvalues --    3.16889   3.17234   3.17863   3.18834   3.19152
 Alpha virt. eigenvalues --    3.20095   3.20431   3.20739   3.21270   3.22161
 Alpha virt. eigenvalues --    3.22723   3.23621   3.24199   3.26255   3.26508
 Alpha virt. eigenvalues --    3.27565   3.27813   3.28584   3.30063   3.30870
 Alpha virt. eigenvalues --    3.32096   3.32610   3.33749   3.34049   3.35028
 Alpha virt. eigenvalues --    3.35751   3.36112   3.37102   3.38466   3.38637
 Alpha virt. eigenvalues --    3.40330   3.41696   3.42129   3.42282   3.43137
 Alpha virt. eigenvalues --    3.43934   3.44486   3.44916   3.45251   3.45520
 Alpha virt. eigenvalues --    3.46284   3.47302   3.47779   3.49478   3.50217
 Alpha virt. eigenvalues --    3.50676   3.52915   3.54066   3.55553   3.55961
 Alpha virt. eigenvalues --    3.56727   3.57664   3.58417   3.58841   3.60769
 Alpha virt. eigenvalues --    3.61427   3.62415   3.65279   3.67458   3.67814
 Alpha virt. eigenvalues --    3.69452   3.70293   3.70750   3.71640   3.72511
 Alpha virt. eigenvalues --    3.72942   3.73233   3.75175   3.76739   3.77225
 Alpha virt. eigenvalues --    3.77449   3.78465   3.78709   3.79977   3.80394
 Alpha virt. eigenvalues --    3.81320   3.81839   3.82887   3.83304   3.84316
 Alpha virt. eigenvalues --    3.84676   3.85603   3.87089   3.88713   3.89501
 Alpha virt. eigenvalues --    3.90538   3.90889   3.92142   3.93145   3.93698
 Alpha virt. eigenvalues --    3.94576   3.96217   3.98912   3.99068   4.01823
 Alpha virt. eigenvalues --    4.04381   4.05268   4.05345   4.06042   4.07080
 Alpha virt. eigenvalues --    4.07717   4.08010   4.09886   4.10484   4.11374
 Alpha virt. eigenvalues --    4.12347   4.12833   4.13882   4.14609   4.15272
 Alpha virt. eigenvalues --    4.16881   4.18436   4.21397   4.22667   4.24674
 Alpha virt. eigenvalues --    4.26103   4.27240   4.28200   4.29441   4.30134
 Alpha virt. eigenvalues --    4.30675   4.32045   4.34040   4.35252   4.35636
 Alpha virt. eigenvalues --    4.36205   4.36821   4.37764   4.38582   4.39920
 Alpha virt. eigenvalues --    4.40182   4.40760   4.42495   4.43472   4.44099
 Alpha virt. eigenvalues --    4.44224   4.45226   4.46810   4.47069   4.47932
 Alpha virt. eigenvalues --    4.48641   4.48703   4.50141   4.51723   4.52991
 Alpha virt. eigenvalues --    4.54138   4.56096   4.57493   4.60482   4.61707
 Alpha virt. eigenvalues --    4.62651   4.64897   4.65257   4.66055   4.66766
 Alpha virt. eigenvalues --    4.69137   4.69788   4.70941   4.72638   4.73185
 Alpha virt. eigenvalues --    4.76139   4.77144   4.78138   4.81741   4.84211
 Alpha virt. eigenvalues --    4.89748   4.90419   4.93775   4.94943   4.97812
 Alpha virt. eigenvalues --    5.02433   5.02552   5.04228   5.04776   5.05949
 Alpha virt. eigenvalues --    5.06921   5.07201   5.08388   5.09132   5.09912
 Alpha virt. eigenvalues --    5.11495   5.11887   5.18111   5.19572   5.22890
 Alpha virt. eigenvalues --    5.23172   5.25598   5.31359   5.33255   5.34504
 Alpha virt. eigenvalues --    5.38390   5.39360   5.40735   5.42816   5.46211
 Alpha virt. eigenvalues --    5.47510   5.50063   5.56881   5.64702   5.65916
 Alpha virt. eigenvalues --    5.67966   5.69003   5.69364   5.71591   5.74168
 Alpha virt. eigenvalues --    5.74510   5.75425   5.76160   5.80057   5.81353
 Alpha virt. eigenvalues --    5.90522   5.95019   6.14146   6.15435   6.48780
 Alpha virt. eigenvalues --    6.49729   6.59403   6.76366   6.78449   6.88426
 Alpha virt. eigenvalues --    6.94354   7.00824   7.07403   7.20753   7.27841
 Alpha virt. eigenvalues --    7.42618   7.55010   7.77179   8.08052  23.90813
 Alpha virt. eigenvalues --   23.96277  24.46228  24.48583  24.49573  24.49879
 Alpha virt. eigenvalues --   24.50550  24.58856  24.70642  24.72402  24.73640
 Alpha virt. eigenvalues --   24.74303  25.17959  25.18964  50.00438  50.02678
  Beta  occ. eigenvalues --  -19.70055 -19.68359 -10.56225 -10.55144 -10.55020
  Beta  occ. eigenvalues --  -10.54960 -10.54937 -10.54880 -10.54863 -10.54781
  Beta  occ. eigenvalues --  -10.54711 -10.54298 -10.54181 -10.54122 -10.53984
  Beta  occ. eigenvalues --  -10.53962  -1.21803  -1.00503  -0.96787  -0.96210
  Beta  occ. eigenvalues --   -0.89577  -0.85774  -0.84767  -0.84108  -0.80329
  Beta  occ. eigenvalues --   -0.73648  -0.69344  -0.68882  -0.67247  -0.65963
  Beta  occ. eigenvalues --   -0.61646  -0.59224  -0.58511  -0.55994  -0.53702
  Beta  occ. eigenvalues --   -0.52819  -0.52484  -0.52159  -0.49666  -0.49118
  Beta  occ. eigenvalues --   -0.48888  -0.48088  -0.46172  -0.46023  -0.44472
  Beta  occ. eigenvalues --   -0.43904  -0.42662  -0.40850  -0.40551  -0.39695
  Beta  occ. eigenvalues --   -0.39109  -0.37870  -0.36893  -0.31330  -0.30772
  Beta  occ. eigenvalues --   -0.30476  -0.29777
  Beta virt. eigenvalues --   -0.09239   0.00392   0.00953   0.01349   0.01431
  Beta virt. eigenvalues --    0.01650   0.01961   0.02540   0.02676   0.02746
  Beta virt. eigenvalues --    0.03430   0.04140   0.04452   0.04750   0.05722
  Beta virt. eigenvalues --    0.06279   0.06743   0.06939   0.08009   0.08293
  Beta virt. eigenvalues --    0.08725   0.08944   0.09289   0.10180   0.11029
  Beta virt. eigenvalues --    0.11466   0.12001   0.12416   0.12640   0.13227
  Beta virt. eigenvalues --    0.13417   0.14305   0.14523   0.14938   0.15645
  Beta virt. eigenvalues --    0.15859   0.16092   0.16406   0.16700   0.17243
  Beta virt. eigenvalues --    0.17404   0.17706   0.18189   0.18494   0.19063
  Beta virt. eigenvalues --    0.19362   0.19944   0.20080   0.20483   0.20926
  Beta virt. eigenvalues --    0.21090   0.21201   0.21779   0.21936   0.22039
  Beta virt. eigenvalues --    0.22519   0.22690   0.22837   0.23171   0.23641
  Beta virt. eigenvalues --    0.23891   0.24157   0.24417   0.24912   0.25280
  Beta virt. eigenvalues --    0.25482   0.26117   0.26473   0.26814   0.27082
  Beta virt. eigenvalues --    0.27511   0.27999   0.28259   0.28635   0.29066
  Beta virt. eigenvalues --    0.30230   0.30787   0.31218   0.31695   0.32112
  Beta virt. eigenvalues --    0.32339   0.32877   0.34531   0.35108   0.35598
  Beta virt. eigenvalues --    0.36013   0.36292   0.36958   0.37369   0.38474
  Beta virt. eigenvalues --    0.38757   0.39981   0.40938   0.41852   0.42827
  Beta virt. eigenvalues --    0.44600   0.46035   0.46666   0.47916   0.49846
  Beta virt. eigenvalues --    0.52050   0.52575   0.52758   0.53494   0.53951
  Beta virt. eigenvalues --    0.54447   0.54907   0.55034   0.55401   0.56140
  Beta virt. eigenvalues --    0.56433   0.56604   0.56715   0.57355   0.57747
  Beta virt. eigenvalues --    0.57877   0.58394   0.58838   0.59630   0.61302
  Beta virt. eigenvalues --    0.61744   0.62455   0.63310   0.63930   0.64189
  Beta virt. eigenvalues --    0.65131   0.65391   0.66029   0.66118   0.66668
  Beta virt. eigenvalues --    0.66861   0.67548   0.67634   0.67707   0.68388
  Beta virt. eigenvalues --    0.68519   0.68891   0.69285   0.69740   0.70241
  Beta virt. eigenvalues --    0.70731   0.71251   0.71672   0.71807   0.72167
  Beta virt. eigenvalues --    0.72634   0.73255   0.73433   0.73703   0.74009
  Beta virt. eigenvalues --    0.74431   0.74992   0.75086   0.75905   0.76257
  Beta virt. eigenvalues --    0.77347   0.78635   0.78999   0.79524   0.80671
  Beta virt. eigenvalues --    0.81628   0.81698   0.82201   0.82984   0.83666
  Beta virt. eigenvalues --    0.83977   0.84769   0.85198   0.85636   0.86340
  Beta virt. eigenvalues --    0.86882   0.87880   0.88891   0.89391   0.89959
  Beta virt. eigenvalues --    0.91015   0.92457   0.93204   0.94570   0.95802
  Beta virt. eigenvalues --    0.96445   0.98068   0.98866   1.00078   1.00878
  Beta virt. eigenvalues --    1.01272   1.01761   1.02549   1.03831   1.04367
  Beta virt. eigenvalues --    1.05004   1.05504   1.06555   1.08110   1.08699
  Beta virt. eigenvalues --    1.09199   1.09455   1.10530   1.11424   1.12390
  Beta virt. eigenvalues --    1.12988   1.14164   1.14581   1.14966   1.15687
  Beta virt. eigenvalues --    1.16624   1.16758   1.18075   1.19096   1.19517
  Beta virt. eigenvalues --    1.21032   1.22095   1.22821   1.23282   1.23796
  Beta virt. eigenvalues --    1.24671   1.25941   1.27201   1.27846   1.28260
  Beta virt. eigenvalues --    1.28948   1.30865   1.31064   1.31805   1.32754
  Beta virt. eigenvalues --    1.33280   1.33612   1.34421   1.34883   1.35448
  Beta virt. eigenvalues --    1.36256   1.37165   1.37750   1.38272   1.38467
  Beta virt. eigenvalues --    1.39004   1.39883   1.40305   1.41199   1.41562
  Beta virt. eigenvalues --    1.41740   1.43387   1.43907   1.44142   1.45209
  Beta virt. eigenvalues --    1.46475   1.47057   1.47614   1.48121   1.48587
  Beta virt. eigenvalues --    1.49801   1.50210   1.50636   1.51355   1.51816
  Beta virt. eigenvalues --    1.53207   1.55121   1.55792   1.56320   1.57592
  Beta virt. eigenvalues --    1.59389   1.61011   1.63681   1.64074   1.66066
  Beta virt. eigenvalues --    1.67452   1.67491   1.68518   1.69464   1.70703
  Beta virt. eigenvalues --    1.71741   1.72489   1.73194   1.73941   1.75149
  Beta virt. eigenvalues --    1.75424   1.76173   1.76457   1.77250   1.78126
  Beta virt. eigenvalues --    1.79747   1.81935   1.83235   1.84350   1.86336
  Beta virt. eigenvalues --    1.89033   1.89453   1.93474   1.98016   2.02733
  Beta virt. eigenvalues --    2.03068   2.03543   2.03865   2.04726   2.05855
  Beta virt. eigenvalues --    2.07732   2.07934   2.15005   2.21363   2.23591
  Beta virt. eigenvalues --    2.25455   2.29061   2.34801   2.45747   2.49829
  Beta virt. eigenvalues --    2.52994   2.54461   2.55949   2.56543   2.57206
  Beta virt. eigenvalues --    2.60377   2.61351   2.62853   2.63617   2.65124
  Beta virt. eigenvalues --    2.66775   2.67012   2.67890   2.69202   2.69727
  Beta virt. eigenvalues --    2.73093   2.73779   2.74736   2.75635   2.76775
  Beta virt. eigenvalues --    2.77343   2.77438   2.77972   2.78560   2.79534
  Beta virt. eigenvalues --    2.79738   2.80215   2.80991   2.81323   2.81517
  Beta virt. eigenvalues --    2.82186   2.83395   2.84109   2.84617   2.85080
  Beta virt. eigenvalues --    2.85396   2.86108   2.87113   2.87931   2.88463
  Beta virt. eigenvalues --    2.88597   2.89258   2.89455   2.90041   2.90323
  Beta virt. eigenvalues --    2.90916   2.91039   2.91867   2.92942   2.93252
  Beta virt. eigenvalues --    2.93719   2.95501   2.95856   2.96874   2.97228
  Beta virt. eigenvalues --    2.97857   2.99238   2.99768   3.02597   3.03442
  Beta virt. eigenvalues --    3.05056   3.07617   3.09186   3.10525   3.11657
  Beta virt. eigenvalues --    3.12166   3.12879   3.13907   3.14631   3.15425
  Beta virt. eigenvalues --    3.16474   3.16961   3.17302   3.18010   3.18932
  Beta virt. eigenvalues --    3.19300   3.20152   3.20514   3.20774   3.21361
  Beta virt. eigenvalues --    3.22335   3.22804   3.23737   3.24232   3.26347
  Beta virt. eigenvalues --    3.26603   3.27478   3.27880   3.28705   3.30166
  Beta virt. eigenvalues --    3.30986   3.32185   3.32626   3.33812   3.34144
  Beta virt. eigenvalues --    3.35119   3.35770   3.36309   3.37206   3.38483
  Beta virt. eigenvalues --    3.38785   3.40430   3.41802   3.42254   3.42422
  Beta virt. eigenvalues --    3.43159   3.44075   3.44586   3.45024   3.45386
  Beta virt. eigenvalues --    3.45740   3.46345   3.47351   3.47890   3.49679
  Beta virt. eigenvalues --    3.50448   3.50801   3.53282   3.54391   3.55638
  Beta virt. eigenvalues --    3.56084   3.56765   3.57801   3.58624   3.58937
  Beta virt. eigenvalues --    3.60915   3.61748   3.62447   3.65657   3.67742
  Beta virt. eigenvalues --    3.67960   3.69741   3.70623   3.70817   3.71798
  Beta virt. eigenvalues --    3.72642   3.73272   3.73428   3.75465   3.76885
  Beta virt. eigenvalues --    3.77365   3.77583   3.78596   3.78856   3.80190
  Beta virt. eigenvalues --    3.80610   3.81507   3.82084   3.83011   3.83482
  Beta virt. eigenvalues --    3.84383   3.85021   3.85799   3.87195   3.88774
  Beta virt. eigenvalues --    3.89623   3.90820   3.91098   3.92243   3.93177
  Beta virt. eigenvalues --    3.93850   3.94649   3.96311   3.99104   3.99159
  Beta virt. eigenvalues --    4.01963   4.04548   4.05409   4.05454   4.06074
  Beta virt. eigenvalues --    4.07250   4.07793   4.08095   4.09919   4.10595
  Beta virt. eigenvalues --    4.11435   4.12391   4.12902   4.13955   4.14774
  Beta virt. eigenvalues --    4.15328   4.17040   4.18328   4.21520   4.22731
  Beta virt. eigenvalues --    4.24865   4.26207   4.27379   4.28339   4.29687
  Beta virt. eigenvalues --    4.30255   4.30731   4.32121   4.34377   4.35360
  Beta virt. eigenvalues --    4.35739   4.36385   4.37000   4.37877   4.38726
  Beta virt. eigenvalues --    4.40076   4.40359   4.40792   4.42577   4.43626
  Beta virt. eigenvalues --    4.44201   4.44361   4.45350   4.46940   4.47205
  Beta virt. eigenvalues --    4.48040   4.48727   4.48805   4.50297   4.51860
  Beta virt. eigenvalues --    4.53138   4.54318   4.56205   4.57656   4.60715
  Beta virt. eigenvalues --    4.61760   4.62876   4.65212   4.65364   4.66273
  Beta virt. eigenvalues --    4.66889   4.69609   4.69974   4.71178   4.72821
  Beta virt. eigenvalues --    4.73285   4.76304   4.77179   4.78221   4.81852
  Beta virt. eigenvalues --    4.84454   4.89693   4.90757   4.94043   4.95044
  Beta virt. eigenvalues --    4.98256   5.02485   5.02911   5.04427   5.05204
  Beta virt. eigenvalues --    5.06466   5.07146   5.07709   5.08995   5.09365
  Beta virt. eigenvalues --    5.10630   5.12347   5.13177   5.18313   5.20141
  Beta virt. eigenvalues --    5.23105   5.23594   5.26165   5.31567   5.34022
  Beta virt. eigenvalues --    5.36722   5.38473   5.39483   5.40979   5.43636
  Beta virt. eigenvalues --    5.46391   5.48117   5.50181   5.57596   5.65272
  Beta virt. eigenvalues --    5.66064   5.67948   5.69124   5.69578   5.71679
  Beta virt. eigenvalues --    5.74282   5.74586   5.75506   5.76200   5.80267
  Beta virt. eigenvalues --    5.81419   5.90728   5.95842   6.14316   6.15445
  Beta virt. eigenvalues --    6.48955   6.49735   6.60081   6.80649   6.82785
  Beta virt. eigenvalues --    6.89088   6.95510   7.03699   7.08937   7.21138
  Beta virt. eigenvalues --    7.29124   7.43183   7.59744   7.78710   8.08870
  Beta virt. eigenvalues --   23.90833  23.96283  24.46244  24.48613  24.49582
  Beta virt. eigenvalues --   24.49886  24.50564  24.59125  24.70676  24.72411
  Beta virt. eigenvalues --   24.73694  24.74310  25.18013  25.18969  50.00309
  Beta virt. eigenvalues --   50.02124
          Condensed to atoms (all electrons):
               1          2          3          4          5          6
     1  C    7.756345  -2.775794   0.202906   0.321948   1.226380  -0.005875
     2  C   -2.775794  15.657015   0.483213   0.010695  -5.047980   0.308576
     3  C    0.202906   0.483213   5.359201   0.040292  -0.724587  -0.016627
     4  H    0.321948   0.010695   0.040292   0.490004   0.010109  -0.006746
     5  C    1.226380  -5.047980  -0.724587   0.010109  20.222422   0.020569
     6  H   -0.005875   0.308576  -0.016627  -0.006746   0.020569   0.473866
     7  C    0.375872  -0.218059   0.124771  -0.004784  -0.216116   0.000539
     8  H    0.021183  -0.009563   0.341505  -0.006589   0.012256  -0.000086
     9  C    0.254614  -4.808738   0.335821  -0.005887  -0.604656  -0.011795
    10  H   -0.012878   0.002064   0.050224  -0.000069  -0.002106   0.000047
    11  H    0.001722  -0.025541  -0.010637   0.000046   0.088941  -0.000107
    12  C   -0.924988   3.338857   0.017842   0.004809 -11.724677   0.074662
    13  C   -0.269140  -0.295195   0.024876   0.000243   2.508445   0.000662
    14  H    0.011719  -0.028802   0.002104   0.000015  -0.153602  -0.000668
    15  H    0.002975   0.065281   0.003672  -0.000000  -0.118903  -0.001569
    16  C    0.109165  -0.760845  -0.056978  -0.000224  -0.695794   0.006149
    17  H   -0.002190   0.043402  -0.000292   0.000000  -0.024380  -0.000000
    18  H    0.004318  -0.002629   0.000666  -0.000000  -0.081888  -0.000000
    19  C   -0.019472  -0.301866   0.001951  -0.000008  -0.493213  -0.002151
    20  C   -0.003547  -0.028274  -0.000277  -0.000003   0.179980  -0.000035
    21  H   -0.000361   0.003234   0.000022   0.000000  -0.005930   0.000007
    22  C    0.001019  -0.009013   0.000019   0.000000  -0.008571  -0.000062
    23  H   -0.000001   0.000121   0.000001   0.000000   0.000370   0.000000
    24  C    0.020318   0.235644  -0.001114   0.000012   0.418714  -0.000269
    25  C   -0.003473   0.011969  -0.000337  -0.000000  -0.047749   0.000132
    26  H   -0.000001   0.000012   0.000000   0.000000   0.000070  -0.000000
    27  H   -0.000132   0.001913   0.000011   0.000000  -0.004073   0.000000
    28  H   -0.000001   0.000033   0.000001   0.000000   0.000093  -0.000000
    29  O   -0.035696   0.119318  -0.001914   0.000007   0.191391  -0.002488
    30  O    0.001857  -0.034464  -0.000038  -0.000000  -0.060657   0.000136
    31  H    0.002180   0.001368   0.000182  -0.000000   0.015166  -0.000062
               7          8          9         10         11         12
     1  C    0.375872   0.021183   0.254614  -0.012878   0.001722  -0.924988
     2  C   -0.218059  -0.009563  -4.808738   0.002064  -0.025541   3.338857
     3  C    0.124771   0.341505   0.335821   0.050224  -0.010637   0.017842
     4  H   -0.004784  -0.006589  -0.005887  -0.000069   0.000046   0.004809
     5  C   -0.216116   0.012256  -0.604656  -0.002106   0.088941 -11.724677
     6  H    0.000539  -0.000086  -0.011795   0.000047  -0.000107   0.074662
     7  C    7.944206   0.019922  -2.108655   0.353542  -0.052460   0.523848
     8  H    0.019922   0.482161  -0.012886  -0.006545  -0.000104   0.007753
     9  C   -2.108655  -0.012886  12.863825  -0.023497   0.368835  -0.375393
    10  H    0.353542  -0.006545  -0.023497   0.486847  -0.006406   0.013856
    11  H   -0.052460  -0.000104   0.368835  -0.006406   0.468057  -0.055979
    12  C    0.523848   0.007753  -0.375393   0.013856  -0.055979  18.709401
    13  C   -0.462333  -0.000161  -0.020935  -0.002883   0.044370  -3.536564
    14  H   -0.009657   0.000002   0.021054   0.000011   0.000685   0.338986
    15  H   -0.008081  -0.000002  -0.020967   0.000011   0.000158   0.478234
    16  C    0.262395   0.000145   0.486337  -0.000912   0.007951   0.351527
    17  H    0.009406   0.000001  -0.062517   0.000008  -0.002497   0.076667
    18  H   -0.000960   0.000001   0.047390   0.000007  -0.003741   0.038837
    19  C   -0.001542  -0.000005   0.299872  -0.000040  -0.003001   0.153370
    20  C    0.012845  -0.000000   0.023251  -0.000004  -0.000364  -0.287417
    21  H    0.000158  -0.000000  -0.002135  -0.000000   0.000006   0.007870
    22  C   -0.002971   0.000000   0.005413  -0.000001   0.000147   0.071262
    23  H   -0.000017  -0.000000  -0.000207   0.000000   0.000000   0.000988
    24  C   -0.053034   0.000005  -0.321101  -0.000037   0.005720   0.178610
    25  C    0.017130   0.000000   0.004534   0.000000  -0.000501  -0.028150
    26  H   -0.000001  -0.000000  -0.000029   0.000000   0.000000  -0.000791
    27  H   -0.000039  -0.000000  -0.002184   0.000000  -0.000000   0.004125
    28  H   -0.000016  -0.000000  -0.000179   0.000000   0.000000  -0.000349
    29  O    0.007999   0.000002  -0.095614  -0.000001  -0.000328  -0.271007
    30  O   -0.001984   0.000000   0.015988   0.000000   0.000001   0.137629
    31  H   -0.000228   0.000000   0.001046  -0.000000   0.000000  -0.013633
              13         14         15         16         17         18
     1  C   -0.269140   0.011719   0.002975   0.109165  -0.002190   0.004318
     2  C   -0.295195  -0.028802   0.065281  -0.760845   0.043402  -0.002629
     3  C    0.024876   0.002104   0.003672  -0.056978  -0.000292   0.000666
     4  H    0.000243   0.000015  -0.000000  -0.000224   0.000000  -0.000000
     5  C    2.508445  -0.153602  -0.118903  -0.695794  -0.024380  -0.081888
     6  H    0.000662  -0.000668  -0.001569   0.006149  -0.000000  -0.000000
     7  C   -0.462333  -0.009657  -0.008081   0.262395   0.009406  -0.000960
     8  H   -0.000161   0.000002  -0.000002   0.000145   0.000001   0.000001
     9  C   -0.020935   0.021054  -0.020967   0.486337  -0.062517   0.047390
    10  H   -0.002883   0.000011   0.000011  -0.000912   0.000008   0.000007
    11  H    0.044370   0.000685   0.000158   0.007951  -0.002497  -0.003741
    12  C   -3.536564   0.338986   0.478234   0.351527   0.076667   0.038837
    13  C   10.208526  -0.119030  -0.034159  -1.519363   0.407576   0.354334
    14  H   -0.119030   0.480817  -0.011345   0.007529  -0.003581   0.007670
    15  H   -0.034159  -0.011345   0.468413  -0.050468   0.004279  -0.006165
    16  C   -1.519363   0.007529  -0.050468   8.938109  -0.185757  -0.002418
    17  H    0.407576  -0.003581   0.004279  -0.185757   0.490240  -0.026814
    18  H    0.354334   0.007670  -0.006165  -0.002418  -0.026814   0.453511
    19  C   -1.339504   0.017658   0.002788  -0.003042  -0.116164   0.032580
    20  C    0.199577  -0.009376   0.010883  -0.043685  -0.001065  -0.011820
    21  H    0.088773  -0.000101  -0.000270   0.055709   0.000278  -0.002748
    22  C   -0.293935   0.003449   0.001193  -0.475321   0.000398   0.002062
    23  H   -0.001007   0.000009   0.000005   0.012769   0.000010   0.000012
    24  C    0.390294   0.003932   0.017366  -1.481424   0.170746  -0.021977
    25  C    0.080757   0.005973  -0.006413   0.285048   0.023694  -0.000230
    26  H    0.006548   0.000000   0.000002   0.018518  -0.000001   0.000000
    27  H    0.064746   0.000830  -0.000043  -0.006818   0.001381   0.000456
    28  H    0.000856   0.000009   0.000001   0.011800  -0.000047   0.000009
    29  O    0.158771  -0.121336   0.000515   0.017014   0.001193  -0.003459
    30  O    0.025615   0.011183  -0.003295  -0.009187  -0.000671  -0.000055
    31  H    0.008049   0.001560   0.000558   0.006365  -0.000035  -0.000003
              19         20         21         22         23         24
     1  C   -0.019472  -0.003547  -0.000361   0.001019  -0.000001   0.020318
     2  C   -0.301866  -0.028274   0.003234  -0.009013   0.000121   0.235644
     3  C    0.001951  -0.000277   0.000022   0.000019   0.000001  -0.001114
     4  H   -0.000008  -0.000003   0.000000   0.000000   0.000000   0.000012
     5  C   -0.493213   0.179980  -0.005930  -0.008571   0.000370   0.418714
     6  H   -0.002151  -0.000035   0.000007  -0.000062   0.000000  -0.000269
     7  C   -0.001542   0.012845   0.000158  -0.002971  -0.000017  -0.053034
     8  H   -0.000005  -0.000000  -0.000000   0.000000  -0.000000   0.000005
     9  C    0.299872   0.023251  -0.002135   0.005413  -0.000207  -0.321101
    10  H   -0.000040  -0.000004  -0.000000  -0.000001   0.000000  -0.000037
    11  H   -0.003001  -0.000364   0.000006   0.000147   0.000000   0.005720
    12  C    0.153370  -0.287417   0.007870   0.071262   0.000988   0.178610
    13  C   -1.339504   0.199577   0.088773  -0.293935  -0.001007   0.390294
    14  H    0.017658  -0.009376  -0.000101   0.003449   0.000009   0.003932
    15  H    0.002788   0.010883  -0.000270   0.001193   0.000005   0.017366
    16  C   -0.003042  -0.043685   0.055709  -0.475321   0.012769  -1.481424
    17  H   -0.116164  -0.001065   0.000278   0.000398   0.000010   0.170746
    18  H    0.032580  -0.011820  -0.002748   0.002062   0.000012  -0.021977
    19  C   10.325212  -0.442208   0.240389   0.449614   0.007529  -2.248304
    20  C   -0.442208   6.080069   0.007419   0.184476   0.319732  -0.358757
    21  H    0.240389   0.007419   0.476481  -0.024118  -0.006488   0.007594
    22  C    0.449614   0.184476  -0.024118   5.411760   0.049673   0.393555
    23  H    0.007529   0.319732  -0.006488   0.049673   0.488453  -0.000785
    24  C   -2.248304  -0.358757   0.007594   0.393555  -0.000785   9.758271
    25  C   -0.173950   0.387647   0.001256   0.095984  -0.010985  -1.141362
    26  H   -0.020105   0.026263  -0.000089   0.333086  -0.006775  -0.015133
    27  H   -0.023335  -0.000191  -0.000085  -0.010668   0.000046   0.275080
    28  H   -0.005727  -0.008830   0.000046   0.046172  -0.000072   0.035531
    29  O   -0.103697   0.029553   0.000173  -0.017093  -0.000015   0.000957
    30  O   -0.038687  -0.002700   0.000062   0.000949  -0.000022   0.029549
    31  H    0.001176   0.000305  -0.000006   0.000657   0.000003  -0.016849
              25         26         27         28         29         30
     1  C   -0.003473  -0.000001  -0.000132  -0.000001  -0.035696   0.001857
     2  C    0.011969   0.000012   0.001913   0.000033   0.119318  -0.034464
     3  C   -0.000337   0.000000   0.000011   0.000001  -0.001914  -0.000038
     4  H   -0.000000   0.000000   0.000000   0.000000   0.000007  -0.000000
     5  C   -0.047749   0.000070  -0.004073   0.000093   0.191391  -0.060657
     6  H    0.000132  -0.000000   0.000000  -0.000000  -0.002488   0.000136
     7  C    0.017130  -0.000001  -0.000039  -0.000016   0.007999  -0.001984
     8  H    0.000000  -0.000000  -0.000000  -0.000000   0.000002   0.000000
     9  C    0.004534  -0.000029  -0.002184  -0.000179  -0.095614   0.015988
    10  H    0.000000   0.000000   0.000000   0.000000  -0.000001   0.000000
    11  H   -0.000501   0.000000  -0.000000   0.000000  -0.000328   0.000001
    12  C   -0.028150  -0.000791   0.004125  -0.000349  -0.271007   0.137629
    13  C    0.080757   0.006548   0.064746   0.000856   0.158771   0.025615
    14  H    0.005973   0.000000   0.000830   0.000009  -0.121336   0.011183
    15  H   -0.006413   0.000002  -0.000043   0.000001   0.000515  -0.003295
    16  C    0.285048   0.018518  -0.006818   0.011800   0.017014  -0.009187
    17  H    0.023694  -0.000001   0.001381  -0.000047   0.001193  -0.000671
    18  H   -0.000230   0.000000   0.000456   0.000009  -0.003459  -0.000055
    19  C   -0.173950  -0.020105  -0.023335  -0.005727  -0.103697  -0.038687
    20  C    0.387647   0.026263  -0.000191  -0.008830   0.029553  -0.002700
    21  H    0.001256  -0.000089  -0.000085   0.000046   0.000173   0.000062
    22  C    0.095984   0.333086  -0.010668   0.046172  -0.017093   0.000949
    23  H   -0.010985  -0.006775   0.000046  -0.000072  -0.000015  -0.000022
    24  C   -1.141362  -0.015133   0.275080   0.035531   0.000957   0.029549
    25  C    6.366537   0.032221   0.075224   0.299111  -0.008936   0.019059
    26  H    0.032221   0.485807  -0.000087  -0.006831   0.000021  -0.000024
    27  H    0.075224  -0.000087   0.481219  -0.006753  -0.001703   0.000188
    28  H    0.299111  -0.006831  -0.006753   0.491311  -0.000053   0.000011
    29  O   -0.008936   0.000021  -0.001703  -0.000053   8.385126   0.044304
    30  O    0.019059  -0.000024   0.000188   0.000011   0.044304   7.771538
    31  H   -0.003233   0.000001   0.000046   0.000007  -0.029609   0.240485
              31
     1  C    0.002180
     2  C    0.001368
     3  C    0.000182
     4  H   -0.000000
     5  C    0.015166
     6  H   -0.000062
     7  C   -0.000228
     8  H    0.000000
     9  C    0.001046
    10  H   -0.000000
    11  H    0.000000
    12  C   -0.013633
    13  C    0.008049
    14  H    0.001560
    15  H    0.000558
    16  C    0.006365
    17  H   -0.000035
    18  H   -0.000003
    19  C    0.001176
    20  C    0.000305
    21  H   -0.000006
    22  C    0.000657
    23  H    0.000003
    24  C   -0.016849
    25  C   -0.003233
    26  H    0.000001
    27  H    0.000046
    28  H    0.000007
    29  O   -0.029609
    30  O    0.240485
    31  H    0.547012
          Atomic-Atomic Spin Densities.
               1          2          3          4          5          6
     1  C    0.143844   0.002952  -0.036157  -0.000588   0.045797  -0.001149
     2  C    0.002952   0.808983   0.004826  -0.000299  -0.096483   0.002776
     3  C   -0.036157   0.004826   0.068432  -0.000033  -0.047134   0.000697
     4  H   -0.000588  -0.000299  -0.000033   0.001304   0.000552  -0.000026
     5  C    0.045797  -0.096483  -0.047134   0.000552   0.341265  -0.005314
     6  H   -0.001149   0.002776   0.000697  -0.000026  -0.005314  -0.001964
     7  C    0.112778   0.081109  -0.039703  -0.000280   0.044921  -0.001213
     8  H    0.000900  -0.000278  -0.000390  -0.000003   0.000369   0.000001
     9  C   -0.201014  -0.661317   0.076075   0.000793  -0.407803  -0.000014
    10  H   -0.000567  -0.000756   0.001141  -0.000000  -0.002607  -0.000000
    11  H   -0.000474  -0.001100  -0.000334  -0.000000   0.003689   0.000006
    12  C   -0.064185  -0.159364   0.009718  -0.000388   0.186571   0.003644
    13  C   -0.022739   0.063253   0.007325   0.000014  -0.070855   0.000595
    14  H   -0.017741  -0.083390   0.002454   0.000005   0.013401  -0.000275
    15  H    0.001521   0.024721  -0.000854  -0.000002   0.002798   0.000153
    16  C    0.005044  -0.010103   0.000248  -0.000004  -0.010194  -0.000350
    17  H    0.000623   0.002756  -0.000279  -0.000000   0.003649  -0.000003
    18  H   -0.000858  -0.008428   0.000315   0.000000  -0.004201   0.000002
    19  C   -0.017211  -0.080848   0.001822   0.000002   0.044971   0.000505
    20  C    0.000575   0.008582  -0.000155   0.000000  -0.012891  -0.000008
    21  H    0.000013   0.000049   0.000002   0.000000  -0.000345  -0.000000
    22  C   -0.000488  -0.005081   0.000047   0.000000   0.001580   0.000011
    23  H   -0.000000  -0.000008   0.000000   0.000000   0.000023  -0.000000
    24  C    0.004818   0.015593  -0.001138  -0.000001   0.002499  -0.000093
    25  C    0.000932   0.003005  -0.000061  -0.000000  -0.006746  -0.000024
    26  H    0.000000   0.000001  -0.000000  -0.000000   0.000000   0.000000
    27  H    0.000008  -0.000006   0.000001   0.000000  -0.000097   0.000000
    28  H   -0.000000  -0.000014   0.000000   0.000000  -0.000019   0.000000
    29  O    0.020415   0.122056  -0.002095  -0.000008  -0.042264   0.000096
    30  O   -0.002553  -0.013859   0.000255   0.000000   0.017626   0.000014
    31  H   -0.000132  -0.001710  -0.000019   0.000000  -0.000337   0.000004
               7          8          9         10         11         12
     1  C    0.112778   0.000900  -0.201014  -0.000567  -0.000474  -0.064185
     2  C    0.081109  -0.000278  -0.661317  -0.000756  -0.001100  -0.159364
     3  C   -0.039703  -0.000390   0.076075   0.001141  -0.000334   0.009718
     4  H   -0.000280  -0.000003   0.000793  -0.000000  -0.000000  -0.000388
     5  C    0.044921   0.000369  -0.407803  -0.002607   0.003689   0.186571
     6  H   -0.001213   0.000001  -0.000014  -0.000000   0.000006   0.003644
[...]
   D13       -0.00395  -0.00003   0.00000  -0.00240  -0.00027  -0.00422
   D14        3.13897  -0.00010   0.00000  -0.00573  -0.00113   3.13784
   D15       -3.13881  -0.00010   0.00000  -0.00492  -0.00084  -3.13965
   D16        0.00411  -0.00017   0.00000  -0.00825  -0.00170   0.00241
   D17        0.01145  -0.00030   0.00000  -0.01172  -0.00219   0.00926
   D18       -3.12688  -0.00012   0.00000  -0.00326  -0.00051  -3.12739
   D19       -3.10238  -0.00056   0.00000  -0.02894  -0.00536  -3.10774
   D20        0.04247  -0.00037   0.00000  -0.02048  -0.00367   0.03880
   D21        2.87742   0.00048   0.00000   0.06609   0.01390   2.89132
   D22       -1.24602   0.00027   0.00000   0.04684   0.00904  -1.23698
   D23        0.75199   0.00002   0.00000   0.05997   0.01196   0.76394
   D24       -0.29217   0.00074   0.00000   0.08351   0.01711  -0.27506
   D25        1.86758   0.00053   0.00000   0.06426   0.01224   1.87982
   D26       -2.41760   0.00028   0.00000   0.07739   0.01516  -2.40244
   D27       -0.00435   0.00024   0.00000   0.01049   0.00188  -0.00247
   D28        3.13401   0.00006   0.00000   0.00211   0.00021   3.13422
   D29        3.13593   0.00031   0.00000   0.01380   0.00273   3.13866
   D30       -0.00890   0.00012   0.00000   0.00542   0.00106  -0.00783
   D31       -3.11383  -0.00022   0.00000   0.01517   0.00159  -3.11225
   D32        1.07491  -0.00073   0.00000   0.00875   0.00141   1.07632
   D33       -0.97894  -0.00037   0.00000   0.01169   0.00159  -0.97734
   D34        0.99054   0.00092   0.00000   0.03586   0.00620   0.99674
   D35       -1.10390   0.00041   0.00000   0.02944   0.00603  -1.09788
   D36        3.12543   0.00077   0.00000   0.03238   0.00621   3.13165
   D37       -0.98947   0.00023   0.00000   0.01842   0.00301  -0.98645
   D38       -3.08391  -0.00029   0.00000   0.01199   0.00283  -3.08108
   D39        1.14543   0.00008   0.00000   0.01494   0.00302   1.14845
   D40       -0.04807  -0.00041   0.00000  -0.00595  -0.00121  -0.04928
   D41        2.18505   0.00005   0.00000  -0.01660  -0.00256   2.18249
   D42       -2.08061   0.00026   0.00000  -0.00772  -0.00148  -2.08209
   D43        1.29688   0.00027   0.00000   0.05198   0.01062   1.30750
   D44       -1.77700  -0.00015   0.00000   0.03006   0.00647  -1.77053
   D45       -2.88120   0.00076   0.00000   0.05804   0.01107  -2.87013
   D46        0.32810   0.00035   0.00000   0.03612   0.00692   0.33503
   D47       -0.82904   0.00026   0.00000   0.05678   0.01116  -0.81788
   D48        2.38026  -0.00016   0.00000   0.03486   0.00702   2.38727
   D49        2.87304  -0.00010   0.00000   0.00351   0.00149   2.87453
   D50       -3.07077  -0.00040   0.00000  -0.02086  -0.00379  -3.07456
   D51        0.08075  -0.00036   0.00000  -0.01786  -0.00357   0.07718
   D52        0.00502  -0.00003   0.00000   0.00033   0.00015   0.00517
   D53       -3.12666   0.00001   0.00000   0.00334   0.00038  -3.12628
   D54        3.07023   0.00041   0.00000   0.01901   0.00361   3.07384
   D55       -0.05730   0.00034   0.00000   0.01643   0.00306  -0.05425
   D56       -0.00499   0.00001   0.00000  -0.00245  -0.00047  -0.00546
   D57       -3.13252  -0.00006   0.00000  -0.00502  -0.00103  -3.13356
   D58        0.00076   0.00001   0.00000   0.00044   0.00004   0.00079
   D59       -3.13653   0.00005   0.00000   0.00248   0.00018  -3.13635
   D60        3.13237  -0.00003   0.00000  -0.00258  -0.00019   3.13217
   D61       -0.00492   0.00001   0.00000  -0.00054  -0.00004  -0.00497
   D62       -0.00663   0.00004   0.00000   0.00087   0.00009  -0.00654
   D63        3.14148   0.00003   0.00000   0.00108   0.00008   3.14156
   D64        3.13065  -0.00001   0.00000  -0.00117  -0.00006   3.13060
   D65       -0.00442  -0.00002   0.00000  -0.00096  -0.00007  -0.00449
   D66        0.00666  -0.00006   0.00000  -0.00297  -0.00041   0.00625
   D67       -3.13794  -0.00013   0.00000  -0.00535  -0.00102  -3.13896
   D68       -3.14145  -0.00005   0.00000  -0.00318  -0.00040   3.14134
   D69       -0.00286  -0.00012   0.00000  -0.00556  -0.00101  -0.00387
   D70       -0.00081   0.00003   0.00000   0.00380   0.00061  -0.00020
   D71       -3.13941   0.00010   0.00000   0.00618   0.00122  -3.13819
   D72        3.12665   0.00011   0.00000   0.00638   0.00117   3.12782
   D73       -0.01195   0.00017   0.00000   0.00876   0.00178  -0.01017
   D74       -1.58272   0.00054   0.00000   0.06694   0.01334  -1.56938
         Item               Value     Threshold  Converged?
 Maximum Force            0.008394     0.002500     NO 
 RMS     Force            0.001272     0.001667     YES
 Maximum Displacement     0.057862     0.010000     NO 
 RMS     Displacement     0.014077     0.006667     NO 
 Predicted change in Energy=-1.076027D-04
 GradGradGradGradGradGradGradGradGradGradGradGradGradGradGradGradGradGrad

                          Input orientation:                          
 ---------------------------------------------------------------------
 Center     Atomic      Atomic             Coordinates (Angstroms)
 Number     Number       Type             X           Y           Z
 ---------------------------------------------------------------------
      1          6           0       -5.456135    1.096962    1.423221
      2          6           0       -4.139068    0.701166    1.281862
      3          6           0       -6.480250    0.168906    1.274155
      4          1           0       -5.688245    2.127237    1.652481
      5          6           0       -3.805856   -0.620977    0.986156
      6          1           0       -3.344143    1.426982    1.402853
      7          6           0       -6.165220   -1.148087    0.988967
      8          1           0       -7.510563    0.474852    1.386134
      9          6           0       -4.837946   -1.539145    0.847727
     10          1           0       -6.952276   -1.879958    0.874148
     11          1           0       -4.615330   -2.574311    0.631827
     12          6           0       -2.351729   -0.982879    0.801172
     13          6           0       -2.026224   -2.473397    0.819297
     14          1           0       -1.973983   -0.564678   -0.125861
     15          1           0       -1.773392   -0.493331    1.595754
     16          6           0       -0.543053   -2.680163    0.665678
     17          1           0       -2.540371   -2.976868   -0.000190
     18          1           0       -2.386495   -2.921321    1.748071
     19          6           0        0.319060   -2.426254    1.730513
     20          6           0        1.691998   -2.536872    1.578066
     21          1           0       -0.096284   -2.147743    2.691902
     22          6           0        2.228925   -2.904387    0.351151
     23          1           0        2.344579   -2.340662    2.416835
     24          6           0        0.006770   -3.054013   -0.554548
     25          6           0        1.381366   -3.166210   -0.713618
     26          1           0        3.299205   -2.991474    0.229127
     27          1           0       -0.648996   -3.247416   -1.393444
     28          1           0        1.788792   -3.455400   -1.672265
     29          8           0       -1.281844    0.201601   -1.824473
     30          8           0       -0.064579    0.037704   -1.380169
     31          1           0        0.173357    0.855737   -0.907879
 ---------------------------------------------------------------------
                    Distance matrix (angstroms):
                    1          2          3          4          5
     1  C    0.000000
     2  C    1.382498   0.000000
     3  C    1.390079   2.400936   0.000000
     4  H    1.080695   2.137986   2.146034   0.000000
     5  C    2.421933   1.395183   2.803434   3.397066   0.000000
     6  H    2.137718   1.083215   3.381492   2.459164   2.140316
     7  C    2.394080   2.758771   1.383851   3.375722   2.417530
     8  H    2.146875   3.380690   1.080596   2.474300   3.884028
     9  C    2.768105   2.386608   2.407580   3.848765   1.388309
    10  H    3.376680   3.839606   2.140247   4.273311   3.390802
    11  H    3.848571   3.373147   3.378720   4.929242   2.143900
    12  C    3.788142   2.502330   4.312193   4.640031   1.509860
    13  C    4.987631   3.841344   5.198750   5.938890   2.574177
    14  H    4.157653   2.876046   4.775420   4.919822   2.143714
    15  H    4.015145   2.668665   4.764084   4.711334   2.125750
    16  C    6.243310   4.974374   6.613452   7.110406   3.871542
    17  H    5.208058   4.210395   5.200240   6.220315   2.850360
    18  H    5.067032   4.051083   5.151012   6.033127   2.808323
    19  C    6.772027   5.464152   7.292032   7.538440   4.563773
    20  C    8.020257   6.676373   8.613897   8.730832   5.852128
    21  H    6.392625   5.142820   6.937715   7.115186   4.359072
    22  C    8.730422   7.376827   9.281530   9.470601   6.483500
    23  H    8.582288   7.251108   9.245608   9.223482   6.544617
    24  C    7.140413   5.887423   7.470796   8.009340   4.778028
    25  C    8.336194   7.029491   8.768081   9.143217   6.022850
    26  H    9.736382   8.370887  10.330432  10.440373   7.528230
    27  H    7.065111   5.910090   7.265732   7.972363   4.746203
    28  H    9.099175   7.819427   9.497054   9.905849   6.811846
    29  O    5.364130   4.250013   6.051941   5.934109   3.866123
    30  O    6.168460   4.912032   6.944313   6.722257   4.475546
    31  H    6.097818   4.838994   7.035872   6.521544   4.647815
                    6          7          8          9         10
     6  H    0.000000
     7  C    3.841974   0.000000
     8  H    4.273861   2.145138   0.000000
     9  C    3.367123   1.390875   3.389535   0.000000
    10  H    4.922805   1.080868   2.473649   2.141785   0.000000
    11  H    4.268576   2.136311   4.271855   1.080620   2.449931
    12  C    2.674759   3.821685   5.392655   2.548111   4.687761
    13  C    4.158172   4.349313   6.252315   2.963007   4.961972
    14  H    2.860247   4.376035   5.832707   3.178009   5.245320
    15  H    2.488387   4.481634   5.822065   3.323365   5.409647
    16  C    5.025751   5.836141   7.682407   4.447603   6.462347
    17  H    4.691319   4.178805   6.207985   2.839870   4.629534
    18  H    4.465871   4.242565   6.158007   2.954765   4.763878
    19  C    5.326710   6.650526   8.356913   5.306692   7.341943
    20  C    6.411361   8.000727   9.684753   6.645977   8.697730
    21  H    4.998889   6.382107   7.972112   5.123937   7.097927
    22  C    7.136240   8.599597  10.360891   7.214647   9.252969
    23  H    6.898178   8.710782  10.301130   7.395485   9.435235
    24  C    5.927845   6.641420   8.528155   5.266163   7.200549
    25  C    6.921510   7.995160   9.835278   6.615511   8.580504
    26  H    8.064394   9.672165  11.410747   8.288857  10.331717
    27  H    6.077260   6.364888   8.286279   5.048598   6.836904
    28  H    7.722760   8.698975  10.548871   7.344117   9.239724
    29  O    4.021227   5.795211   7.012816   4.776684   6.615832
    30  O    4.520049   6.651070   7.955263   5.498637   7.496649
    31  H    4.247188   6.913096   8.028087   5.825012   7.838003
                   11         12         13         14         15
    11  H    0.000000
    12  C    2.772223   0.000000
    13  C    2.597844   1.525753   0.000000
    14  H    3.404325   1.084885   2.130554   0.000000
    15  H    3.651881   1.097949   2.141838   1.734729   0.000000
    16  C    4.073793   2.484037   1.505374   2.673831   2.676007
    17  H    2.206117   2.157257   1.090591   2.480978   3.050123
    18  H    2.516767   2.157633   1.092269   3.039006   2.508831
    19  C    5.057393   3.174920   2.516524   3.488500   2.851790
    20  C    6.378021   4.401157   3.795383   4.498036   4.023096
    21  H    4.984741   3.165249   2.708758   3.737865   2.598328
    22  C    6.857955   4.987695   4.302465   4.833861   4.835367
    23  H    7.188962   5.148714   4.655499   5.316897   4.587428
    24  C    4.795978   3.419077   2.521434   3.209976   3.788122
    25  C    6.174215   4.582305   3.800197   4.286233   4.736030
    26  H    7.935745   6.024512   5.383020   5.815657   5.817184
    27  H    4.504064   3.583820   2.718839   3.249529   4.217174
    28  H    6.862793   5.419886   4.661176   4.990603   5.669476
    29  O    4.985100   3.072728   3.833958   1.987843   3.524557
    30  O    5.619616   3.321279   3.871864   2.362621   3.472486
    31  H    6.088303   3.560537   4.347922   2.690761   3.446446
                   16         17         18         19         20
    16  C    0.000000
    17  H    2.126192   0.000000
    18  H    2.151282   1.755899   0.000000
    19  C    1.393406   3.387455   2.750532   0.000000
    20  C    2.418354   4.538440   4.100099   1.385798   0.000000
    21  H    2.142116   3.729393   2.595055   1.083674   2.142430
    22  C    2.798761   4.782768   4.822217   2.403921   1.388769
    23  H    3.394146   5.487213   4.813261   2.140349   1.080691
    24  C    1.389611   2.607909   3.323760   2.390211   2.766852
    25  C    2.417041   3.990595   4.507401   2.765828   2.396743
    26  H    3.879489   5.844095   5.885516   3.384508   2.146955
    27  H    2.138453   2.364667   3.604768   3.372024   3.849026
    28  H    3.391823   4.665456   5.423740   3.846836   3.379011
    29  O    3.879591   3.874863   4.871957   4.701748   5.283961
    30  O    3.435292   4.137817   4.892138   3.986805   4.297111
    31  H    3.935976   4.782998   5.279496   4.213526   4.471687
                   21         22         23         24         25
    21  H    0.000000
    22  C    3.385000   0.000000
    23  H    2.463878   2.144345   0.000000
    24  C    3.372148   2.404298   3.847510   0.000000
    25  C    3.849454   1.385871   3.377728   1.388310   0.000000
    26  H    4.278609   1.080728   2.474052   3.384994   2.144156
    27  H    4.266712   3.382855   4.929698   1.082211   2.142692
    28  H    4.930460   2.142788   4.274608   2.141496   1.081032
    29  O    5.227104   5.167785   6.132107   3.724548   4.434957
    30  O    4.621574   4.112606   5.087033   3.200852   3.577725
    31  H    4.695958   4.466436   5.097538   3.929216   4.203936
                   26         27         28         29         30
    26  H    0.000000
    27  H    4.276276   0.000000
    28  H    2.472219   2.462480   0.000000
    29  O    5.949707   3.532988   4.777618   0.000000
    30  O    4.804248   3.336725   3.965108   1.306140   0.000000
    31  H    5.085739   4.212826   4.666885   1.840013   0.974089
                   31
    31  H    0.000000
 Stoichiometry    C14H15O2(2)
 Framework group  C1[X(C14H15O2)]
 Deg. of freedom    87
 Full point group                 C1      NOp   1
 Largest Abelian subgroup         C1      NOp   1
 Largest concise Abelian subgroup C1      NOp   1
                         Standard orientation:                         
 ---------------------------------------------------------------------
 Center     Atomic      Atomic             Coordinates (Angstroms)
 Number     Number       Type             X           Y           Z
 ---------------------------------------------------------------------
      1          6           0       -4.227024    0.505963    0.962084
      2          6           0       -2.847922    0.536716    1.053900
      3          6           0       -4.840551   -0.250691   -0.029572
      4          1           0       -4.827104    1.068039    1.663423
      5          6           0       -2.044787   -0.177515    0.164302
      6          1           0       -2.374289    1.124534    1.830750
      7          6           0       -4.057521   -0.971229   -0.914295
      8          1           0       -5.918325   -0.278358   -0.102535
      9          6           0       -2.670569   -0.935332   -0.816266
     10          1           0       -4.522609   -1.566193   -1.687591
     11          1           0       -2.079469   -1.511438   -1.513719
     12          6           0       -0.543928   -0.069575    0.288602
     13          6           0        0.266741   -1.115387   -0.471013
     14          1           0       -0.209127    0.913155   -0.026238
     15          1           0       -0.282922   -0.136414    1.352980
     16          6           0        1.737154   -0.909705   -0.222559
     17          1           0        0.073578   -1.031234   -1.541057
     18          1           0       -0.041874   -2.117991   -0.166717
     19          6           0        2.305626   -1.278341    0.995032
     20          6           0        3.640484   -1.022114    1.265102
     21          1           0        1.692500   -1.780761    1.733950
     22          6           0        4.433473   -0.388581    0.317217
     23          1           0        4.064935   -1.319826    2.213312
     24          6           0        2.543383   -0.282998   -1.165031
     25          6           0        3.881230   -0.023268   -0.900245
     26          1           0        5.474796   -0.187361    0.524897
     27          1           0        2.115028    0.016303   -2.112719
     28          1           0        4.490278    0.468170   -1.646018
     29          8           0        0.404321    2.713823   -0.603126
     30          8           0        1.531009    2.510410    0.025524
     31          1           0        1.407239    2.837852    0.934542
 ---------------------------------------------------------------------
 Rotational constants (GHZ):           1.0571123           0.2485708           0.2271052
 Standard basis: 6-311+G(2df,2p) (5D, 7F)
 There are   759 symmetry adapted cartesian basis functions of A   symmetry.
 There are   679 symmetry adapted basis functions of A   symmetry.
   679 basis functions,   997 primitive gaussians,   759 cartesian basis functions
    58 alpha electrons       57 beta electrons
       nuclear repulsion energy      1000.9456264469 Hartrees.
 NAtoms=   31 NActive=   31 NUniq=   31 SFac= 1.00D+00 NAtFMM=   60 NAOKFM=F Big=F
 Integral buffers will be    131072 words long.
 Raffenetti 2 integral format.
 Two-electron integral symmetry is turned on.
 One-electron integrals computed using PRISM.
 NBasis=   679 RedAO= T EigKep=  1.11D-06  NBF=   679
 NBsUse=   678 1.00D-06 EigRej=  6.24D-07 NBFU=   678
 Initial guess from the checkpoint file:  "/scratch/dinius.ab/QMscratch/Gau-40128.chk"
 B after Tr=     0.000000    0.000000    0.000000
         Rot=    0.999996   -0.002904   -0.000094   -0.000315 Ang=  -0.33 deg.
 Initial guess <Sx>= 0.0000 <Sy>= 0.0000 <Sz>= 0.5000 <S**2>= 0.7550 S= 0.5025
 ExpMin= 4.38D-02 ExpMax= 8.59D+03 ExpMxC= 1.30D+03 IAcc=2 IRadAn=         4 AccDes= 0.00D+00
 Harris functional with IExCor= 1009 and IRadAn=       4 diagonalized for initial guess.
 HarFok:  IExCor= 1009 AccDes= 0.00D+00 IRadAn=         4 IDoV= 1 UseB2=F ITyADJ=14
 ICtDFT=  3500011 ScaDFX=  1.000000  1.000000  1.000000  1.000000
 FoFCou: FMM=F IPFlag=           0 FMFlag=      100000 FMFlg1=           0
         NFxFlg=           0 DoJE=T BraDBF=F KetDBF=T FulRan=T
         wScrn=  0.000000 ICntrl=       500 IOpCl=  0 I1Cent=   200000004 NGrid=           0
         NMat0=    1 NMatS0=      1 NMatT0=    0 NMatD0=    1 NMtDS0=    0 NMtDT0=    0
 Petite list used in FoFCou.
 Requested convergence on RMS density matrix=1.00D-08 within 128 cycles.
 Requested convergence on MAX density matrix=1.00D-06.
 Requested convergence on             energy=1.00D-06.
 No special actions if energy rises.
 SCF Done:  E(UM062X) =  -692.753935947     A.U. after   15 cycles
            NFock= 15  Conv=0.53D-08     -V/T= 2.0038
 <Sx>= 0.0000 <Sy>= 0.0000 <Sz>= 0.5000 <S**2>= 0.7550 S= 0.5025
 <L.S>= 0.000000000000E+00
 Annihilation of the first spin contaminant:
 S**2 before annihilation     0.7550,   after     0.7500
 Calling FoFJK, ICntrl=      2127 FMM=F ISym2X=0 I1Cent= 0 IOpClX= 1 NMat=1 NMatS=1 NMatT=0.
