 Entering Gaussian System, Link 0=g16
 Input=rxn938.com
 Output=rxn938.log
 Initial command:
 /shared/centos7/gaussian/g16/l1.exe "/scratch/dinius.ab/QMscratch/Gau-19243.inp" -scrdir="/scratch/dinius.ab/QMscratch/"
 Entering Link 1 = /shared/centos7/gaussian/g16/l1.exe PID=     19244.
  
 Copyright (c) 1988,1990,1992,1993,1995,1998,2003,2009,2016,
            Gaussian, Inc.  All Rights Reserved.
  
 This is part of the Gaussian(R) 16 program.  It is based on
 the Gaussian(R) 09 system (copyright 2009, Gaussian, Inc.),
 the Gaussian(R) 03 system (copyright 2003, Gaussian, Inc.),
 the Gaussian(R) 98 system (copyright 1998, Gaussian, Inc.),
 the Gaussian(R) 94 system (copyright 1995, Gaussian, Inc.),
 the Gaussian 92(TM) system (copyright 1992, Gaussian, Inc.),
 the Gaussian 90(TM) system (copyright 1990, Gaussian, Inc.),
 the Gaussian 88(TM) system (copyright 1988, Gaussian, Inc.),
 the Gaussian 86(TM) system (copyright 1986, Carnegie Mellon
 University), and the Gaussian 82(TM) system (copyright 1983,
 Carnegie Mellon University). Gaussian is a federally registered
 trademark of Gaussian, Inc.
  
 This software contains proprietary and confidential information,
 including trade secrets, belonging to Gaussian, Inc.
  
 This software is provided under written license and may be
 used, copied, transmitted, or stored only in accord with that
 written license.
  
 The following legend is applicable only to US Government
 contracts under FAR:
  
                    RESTRICTED RIGHTS LEGEND
  
 Use, reproduction and disclosure by the US Government is
 subject to restrictions as set forth in subparagraphs (a)
 and (c) of the Commercial Computer Software - Restricted
 Rights clause in FAR 52.227-19.
  
 Gaussian, Inc.
 340 Quinnipiac St., Bldg. 40, Wallingford CT 06492
  
  
 ---------------------------------------------------------------
 Warning -- This program may not be used in any manner that
 competes with the business of Gaussian, Inc. or will provide
 assistance to any competitor of Gaussian, Inc.  The licensee
 of this program is prohibited from giving any competitor of
 Gaussian, Inc. access to this program.  By using this program,
 the user acknowledges that Gaussian, Inc. is engaged in the
 business of creating and licensing software in the field of
 computational chemistry and represents and warrants to the
 licensee that it is not a competitor of Gaussian, Inc. and that
 it will not use this program in any manner prohibited above.
 ---------------------------------------------------------------
  

 Cite this work as:
 Gaussian 16, Revision A.03,
 M. J. Frisch, G. W. Trucks, H. B. Schlegel, G. E. Scuseria, 
 M. A. Robb, J. R. Cheeseman, G. Scalmani, V. Barone, 
 G. A. Petersson, H. Nakatsuji, X. Li, M. Caricato, A. V. Marenich, 
 J. Bloino, B. G. Janesko, R. Gomperts, B. Mennucci, H. P. Hratchian, 
 J. V. Ortiz, A. F. Izmaylov, J. L. Sonnenberg, D. Williams-Young, 
 F. Ding, F. Lipparini, F. Egidi, J. Goings, B. Peng, A. Petrone, 
 T. Henderson, D. Ranasinghe, V. G. Zakrzewski, J. Gao, N. Rega, 
 G. Zheng, W. Liang, M. Hada, M. Ehara, K. Toyota, R. Fukuda, 
 J. Hasegawa, M. Ishida, T. Nakajima, Y. Honda, O. Kitao, H. Nakai, 
 T. Vreven, K. Throssell, J. A. Montgomery, Jr., J. E. Peralta, 
 F. Ogliaro, M. J. Bearpark, J. J. Heyd, E. N. Brothers, K. N. Kudin, 
 V. N. Staroverov, T. A. Keith, R. Kobayashi, J. Normand, 
 K. Raghavachari, A. P. Rendell, J. C. Burant, S. S. Iyengar, 
 J. Tomasi, M. Cossi, J. M. Millam, M. Klene, C. Adamo, R. Cammi, 
 J. W. Ochterski, R. L. Martin, K. Morokuma, O. Farkas, 
 J. B. Foresman, and D. J. Fox, Gaussian, Inc., Wallingford CT, 2016.
 
 ******************************************
 Gaussian 16:  EM64L-G16RevA.03 25-Dec-2016
                 9-Nov-2018 
 ******************************************
 ----------------------------------------------------------------------
 #m062x/6-311+g(2df,2p) Opt=(ModRedun,Loose,maxcycle=1000) Integral=NoX
 CTest Int(Grid=SG1) freq
 ----------------------------------------------------------------------
 1/6=1000,7=-1,18=120,19=15,26=2,38=1/1,3;
 2/9=110,12=2,17=6,18=5,40=1/2;
 3/5=4,6=6,7=214,11=2,25=1,30=1,47=8,71=1,74=-55,75=1/1,2,3;
 4//1;
 5/5=2,38=5/2;
 6/7=2,8=2,9=2,10=2,28=1/1;
 7//1,2,3,16;
 1/6=1000,7=-1,18=20,19=15,26=2/3(2);
 2/9=110/2;
 99//99;
 2/9=110/2;
 3/5=4,6=6,7=214,11=2,25=1,30=1,47=8,71=1,74=-55,75=1/1,2,3;
 4/5=5,16=3,69=1/1;
 5/5=2,38=5/2;
 7//1,2,3,16;
 1/6=1000,7=-1,18=20,19=15,26=2/3(-5);
 2/9=110/2;
 6/7=2,8=2,9=2,10=2,19=2,28=1/1;
 99/9=1/99;
 -----
 Title
 -----
 Symbolic Z-matrix:
 Charge =  0 Multiplicity = 2
 C                    -2.71737   4.21001   6.68819 
 C                    -1.89823   3.36544   5.9481 
 C                    -3.18038   5.39046   6.11979 
 H                    -2.99453   3.9482    7.70636 
 C                    -2.82726   5.72849   4.81516 
 H                    -3.82149   6.05319   6.69594 
 C                    -1.5405    3.69805   4.64008 
 H                    -1.53901   2.44262   6.39803 
 C                    -2.00019   4.88955   4.04807 
 H                    -3.21884   6.66068   4.42682 
 C                    -0.71866   2.82592   3.93011 
 C                    -1.61815   5.19323   2.72143 
 C                    -0.34405   3.12448   2.62784 
 H                    -0.36534   1.90574   4.38988 
 C                    -0.78728   4.29825   2.02269 
 H                     0.29752   2.43376   2.08542 
 C                    -0.39133   4.56517   0.71083 
 C                    -2.03374   6.35836   2.05536 
 C                    -1.63512   6.61877   0.74644 
 H                    -2.67583   7.09187   2.52733 
 C                    -0.81053   5.7267    0.06717 
 H                    -1.9764    7.52693   0.25465 
 H                     0.24816   3.85993   0.18409 
 C                    -0.38808   6.01298  -1.36402 
 H                     0.52587   5.4699   -1.61702 
 H                    -0.19308   7.07946  -1.50048 
 O                    -1.88294   5.3686   -2.83456 
 O                    -2.83331   4.48021  -3.51972 
 H                    -2.21282   4.00211  -4.09977 
 H                    -1.17453   5.71275  -2.06312 
 
 The following ModRedundant input section has been read:
 

 GradGradGradGradGradGradGradGradGradGradGradGradGradGradGradGradGradGrad
 Berny optimization.
 Initialization pass.
                           ----------------------------
                           !    Initial Parameters    !
                           ! (Angstroms and Degrees)  !
 --------------------------                            --------------------------
 ! Name  Definition              Value          Derivative Info.                !
 --------------------------------------------------------------------------------
 ! R1    R(1,2)                  1.39           estimate D2E/DX2                !
 ! R2    R(1,3)                  1.3896         estimate D2E/DX2                !
 ! R3    R(1,4)                  1.0872         estimate D2E/DX2                !
 ! R4    R(2,7)                  1.3963         estimate D2E/DX2                !
 ! R5    R(2,8)                  1.0877         estimate D2E/DX2                !
 ! R6    R(3,5)                  1.3932         estimate D2E/DX2                !
 ! R7    R(3,6)                  1.0873         estimate D2E/DX2                !
 ! R8    R(5,9)                  1.4058         estimate D2E/DX2                !
 ! R9    R(5,10)                 1.0831         estimate D2E/DX2                !
 ! R10   R(7,9)                  1.4076         estimate D2E/DX2                !
 ! R11   R(7,11)                 1.3929         estimate D2E/DX2                !
 ! R12   R(9,12)                 1.4136         estimate D2E/DX2                !
 ! R13   R(11,13)                1.3876         estimate D2E/DX2                !
 ! R14   R(11,14)                1.0876         estimate D2E/DX2                !
 ! R15   R(12,15)                1.407          estimate D2E/DX2                !
 ! R16   R(12,18)                1.405          estimate D2E/DX2                !
 ! R17   R(13,15)                1.393          estimate D2E/DX2                !
 ! R18   R(13,16)                1.0876         estimate D2E/DX2                !
 ! R19   R(15,17)                1.3961         estimate D2E/DX2                !
 ! R20   R(17,21)                1.3925         estimate D2E/DX2                !
 ! R21   R(17,23)                1.088          estimate D2E/DX2                !
 ! R22   R(18,19)                1.3928         estimate D2E/DX2                !
 ! R23   R(18,20)                1.0831         estimate D2E/DX2                !
 ! R24   R(19,21)                1.3918         estimate D2E/DX2                !
 ! R25   R(19,22)                1.0877         estimate D2E/DX2                !
 ! R26   R(21,24)                1.5194         estimate D2E/DX2                !
 ! R27   R(24,25)                1.0928         estimate D2E/DX2                !
 ! R28   R(24,26)                1.0927         estimate D2E/DX2                !
 ! R29   R(24,30)                1.0942         estimate D2E/DX2                !
 ! R30   R(27,28)                1.4703         estimate D2E/DX2                !
 ! R31   R(27,30)                1.1025         estimate D2E/DX2                !
 ! R32   R(28,29)                0.9747         estimate D2E/DX2                !
 ! A1    A(2,1,3)              119.6526         estimate D2E/DX2                !
 ! A2    A(2,1,4)              120.1689         estimate D2E/DX2                !
 ! A3    A(3,1,4)              120.1785         estimate D2E/DX2                !
 ! A4    A(1,2,7)              120.3345         estimate D2E/DX2                !
 ! A5    A(1,2,8)              119.3335         estimate D2E/DX2                !
 ! A6    A(7,2,8)              120.332          estimate D2E/DX2                !
 ! A7    A(1,3,5)              120.3115         estimate D2E/DX2                !
 ! A8    A(1,3,6)              119.8358         estimate D2E/DX2                !
 ! A9    A(5,3,6)              119.8527         estimate D2E/DX2                !
 ! A10   A(3,5,9)              121.0169         estimate D2E/DX2                !
 ! A11   A(3,5,10)             116.9321         estimate D2E/DX2                !
 ! A12   A(9,5,10)             122.051          estimate D2E/DX2                !
 ! A13   A(2,7,9)              120.7945         estimate D2E/DX2                !
 ! A14   A(2,7,11)             118.6542         estimate D2E/DX2                !
 ! A15   A(9,7,11)             120.5513         estimate D2E/DX2                !
 ! A16   A(5,9,7)              117.8899         estimate D2E/DX2                !
 ! A17   A(5,9,12)             122.8816         estimate D2E/DX2                !
 ! A18   A(7,9,12)             119.2284         estimate D2E/DX2                !
 ! A19   A(7,11,13)            120.1953         estimate D2E/DX2                !
 ! A20   A(7,11,14)            120.3937         estimate D2E/DX2                !
 ! A21   A(13,11,14)           119.411          estimate D2E/DX2                !
 ! A22   A(9,12,15)            119.2773         estimate D2E/DX2                !
 ! A23   A(9,12,18)            122.8984         estimate D2E/DX2                !
 ! A24   A(15,12,18)           117.8242         estimate D2E/DX2                !
 ! A25   A(11,13,15)           120.2068         estimate D2E/DX2                !
 ! A26   A(11,13,16)           119.3843         estimate D2E/DX2                !
 ! A27   A(15,13,16)           120.4089         estimate D2E/DX2                !
 ! A28   A(12,15,13)           120.541          estimate D2E/DX2                !
 ! A29   A(12,15,17)           120.8332         estimate D2E/DX2                !
 ! A30   A(13,15,17)           118.6258         estimate D2E/DX2                !
 ! A31   A(15,17,21)           120.5598         estimate D2E/DX2                !
 ! A32   A(15,17,23)           119.8479         estimate D2E/DX2                !
 ! A33   A(21,17,23)           119.5921         estimate D2E/DX2                !
 ! A34   A(12,18,19)           121.0588         estimate D2E/DX2                !
 ! A35   A(12,18,20)           122.0332         estimate D2E/DX2                !
 ! A36   A(19,18,20)           116.9079         estimate D2E/DX2                !
 ! A37   A(18,19,21)           120.5552         estimate D2E/DX2                !
 ! A38   A(18,19,22)           119.4199         estimate D2E/DX2                !
 ! A39   A(21,19,22)           120.0247         estimate D2E/DX2                !
 ! A40   A(17,21,19)           119.1683         estimate D2E/DX2                !
 ! A41   A(17,21,24)           120.5859         estimate D2E/DX2                !
 ! A42   A(19,21,24)           120.2423         estimate D2E/DX2                !
 ! A43   A(21,24,25)           110.9133         estimate D2E/DX2                !
 ! A44   A(21,24,26)           110.5564         estimate D2E/DX2                !
 ! A45   A(21,24,30)           110.5031         estimate D2E/DX2                !
 ! A46   A(25,24,26)           107.8704         estimate D2E/DX2                !
 ! A47   A(25,24,30)           108.4706         estimate D2E/DX2                !
 ! A48   A(26,24,30)           108.4366         estimate D2E/DX2                !
 ! A49   A(28,27,30)           158.439          estimate D2E/DX2                !
 ! A50   A(27,28,29)            99.3353         estimate D2E/DX2                !
 ! A51   L(24,30,27,6,-1)      185.254          estimate D2E/DX2                !
 ! A52   L(24,30,27,6,-2)      183.2386         estimate D2E/DX2                !
 ! D1    D(3,1,2,7)             -0.0058         estimate D2E/DX2                !
 ! D2    D(3,1,2,8)           -179.9822         estimate D2E/DX2                !
 ! D3    D(4,1,2,7)            179.9786         estimate D2E/DX2                !
 ! D4    D(4,1,2,8)              0.0022         estimate D2E/DX2                !
 ! D5    D(2,1,3,5)              0.0032         estimate D2E/DX2                !
 ! D6    D(2,1,3,6)            179.9858         estimate D2E/DX2                !
 ! D7    D(4,1,3,5)           -179.9812         estimate D2E/DX2                !
 ! D8    D(4,1,3,6)              0.0014         estimate D2E/DX2                !
 ! D9    D(1,2,7,9)              0.0011         estimate D2E/DX2                !
 ! D10   D(1,2,7,11)          -179.9642         estimate D2E/DX2                !
 ! D11   D(8,2,7,9)            179.9773         estimate D2E/DX2                !
 ! D12   D(8,2,7,11)             0.0119         estimate D2E/DX2                !
 ! D13   D(1,3,5,9)              0.0042         estimate D2E/DX2                !
 ! D14   D(1,3,5,10)           179.9903         estimate D2E/DX2                !
 ! D15   D(6,3,5,9)           -179.9784         estimate D2E/DX2                !
 ! D16   D(6,3,5,10)             0.0077         estimate D2E/DX2                !
 ! D17   D(3,5,9,7)             -0.0087         estimate D2E/DX2                !
 ! D18   D(3,5,9,12)           179.9631         estimate D2E/DX2                !
 ! D19   D(10,5,9,7)          -179.9941         estimate D2E/DX2                !
 ! D20   D(10,5,9,12)           -0.0223         estimate D2E/DX2                !
 ! D21   D(2,7,9,5)              0.0061         estimate D2E/DX2                !
 ! D22   D(2,7,9,12)          -179.9669         estimate D2E/DX2                !
 ! D23   D(11,7,9,5)           179.9707         estimate D2E/DX2                !
 ! D24   D(11,7,9,12)           -0.0022         estimate D2E/DX2                !
 ! D25   D(2,7,11,13)          179.9623         estimate D2E/DX2                !
 ! D26   D(2,7,11,14)           -0.0049         estimate D2E/DX2                !
 ! D27   D(9,7,11,13)           -0.0031         estimate D2E/DX2                !
 ! D28   D(9,7,11,14)         -179.9703         estimate D2E/DX2                !
 ! D29   D(5,9,12,15)         -179.9755         estimate D2E/DX2                !
 ! D30   D(5,9,12,18)           -0.0922         estimate D2E/DX2                !
 ! D31   D(7,9,12,15)           -0.004          estimate D2E/DX2                !
 ! D32   D(7,9,12,18)          179.8793         estimate D2E/DX2                !
 ! D33   D(7,11,13,15)           0.0147         estimate D2E/DX2                !
 ! D34   D(7,11,13,16)        -179.9568         estimate D2E/DX2                !
 ! D35   D(14,11,13,15)        179.9822         estimate D2E/DX2                !
 ! D36   D(14,11,13,16)          0.0107         estimate D2E/DX2                !
 ! D37   D(9,12,15,13)           0.0156         estimate D2E/DX2                !
 ! D38   D(9,12,15,17)         179.9323         estimate D2E/DX2                !
 ! D39   D(18,12,15,13)       -179.8736         estimate D2E/DX2                !
 ! D40   D(18,12,15,17)          0.0432         estimate D2E/DX2                !
 ! D41   D(9,12,18,19)        -179.9289         estimate D2E/DX2                !
 ! D42   D(9,12,18,20)          -0.0707         estimate D2E/DX2                !
 ! D43   D(15,12,18,19)         -0.0441         estimate D2E/DX2                !
 ! D44   D(15,12,18,20)        179.8141         estimate D2E/DX2                !
 ! D45   D(11,13,15,12)         -0.021          estimate D2E/DX2                !
 ! D46   D(11,13,15,17)       -179.9396         estimate D2E/DX2                !
 ! D47   D(16,13,15,12)        179.9502         estimate D2E/DX2                !
 ! D48   D(16,13,15,17)          0.0316         estimate D2E/DX2                !
 ! D49   D(12,15,17,21)          0.0989         estimate D2E/DX2                !
 ! D50   D(12,15,17,23)       -179.7489         estimate D2E/DX2                !
 ! D51   D(13,15,17,21)       -179.9827         estimate D2E/DX2                !
 ! D52   D(13,15,17,23)          0.1694         estimate D2E/DX2                !
 ! D53   D(15,17,21,19)         -0.2387         estimate D2E/DX2                !
 ! D54   D(15,17,21,24)       -179.5597         estimate D2E/DX2                !
 ! D55   D(23,17,21,19)        179.6095         estimate D2E/DX2                !
 ! D56   D(23,17,21,24)          0.2885         estimate D2E/DX2                !
 ! D57   D(12,18,19,21)         -0.0973         estimate D2E/DX2                !
 ! D58   D(12,18,19,22)        179.7197         estimate D2E/DX2                !
 ! D59   D(20,18,19,21)       -179.9625         estimate D2E/DX2                !
 ! D60   D(20,18,19,22)         -0.1455         estimate D2E/DX2                !
 ! D61   D(18,19,21,17)          0.2379         estimate D2E/DX2                !
 ! D62   D(18,19,21,24)        179.5613         estimate D2E/DX2                !
 ! D63   D(22,19,21,17)       -179.578          estimate D2E/DX2                !
 ! D64   D(22,19,21,24)         -0.2546         estimate D2E/DX2                !
 ! D65   D(17,21,24,25)        -22.8785         estimate D2E/DX2                !
 ! D66   D(17,21,24,26)       -142.4921         estimate D2E/DX2                !
 ! D67   D(17,21,24,30)         97.4524         estimate D2E/DX2                !
 ! D68   D(19,21,24,25)        157.8077         estimate D2E/DX2                !
 ! D69   D(19,21,24,26)         38.1942         estimate D2E/DX2                !
 ! D70   D(19,21,24,30)        -81.8613         estimate D2E/DX2                !
 ! D71   D(21,24,27,28)        -50.6906         estimate D2E/DX2                !
 ! D72   D(25,24,27,28)         70.5602         estimate D2E/DX2                !
 ! D73   D(26,24,27,28)       -173.8097         estimate D2E/DX2                !
 ! D74   D(30,27,28,29)        -91.5207         estimate D2E/DX2                !
 --------------------------------------------------------------------------------
 Trust Radius=3.00D-01 FncErr=1.00D-05 GrdErr=1.00D-04 EigMax=2.50D+02 EigMin=1.00D-04
 Number of steps in this run=    180 maximum allowed number of steps=    180.
 GradGradGradGradGradGradGradGradGradGradGradGradGradGradGradGradGradGrad

                          Input orientation:                          
 ---------------------------------------------------------------------
 Center     Atomic      Atomic             Coordinates (Angstroms)
 Number     Number       Type             X           Y           Z
 ---------------------------------------------------------------------
      1          6           0       -2.717370    4.210010    6.688190
      2          6           0       -1.898230    3.365440    5.948100
      3          6           0       -3.180380    5.390460    6.119790
      4          1           0       -2.994530    3.948200    7.706360
      5          6           0       -2.827260    5.728490    4.815160
      6          1           0       -3.821490    6.053190    6.695940
      7          6           0       -1.540500    3.698050    4.640080
      8          1           0       -1.539010    2.442620    6.398030
      9          6           0       -2.000190    4.889550    4.048070
     10          1           0       -3.218840    6.660680    4.426820
     11          6           0       -0.718660    2.825920    3.930110
     12          6           0       -1.618150    5.193230    2.721430
     13          6           0       -0.344050    3.124480    2.627840
     14          1           0       -0.365340    1.905740    4.389880
     15          6           0       -0.787280    4.298250    2.022690
     16          1           0        0.297520    2.433760    2.085420
     17          6           0       -0.391330    4.565170    0.710830
     18          6           0       -2.033740    6.358360    2.055360
     19          6           0       -1.635120    6.618770    0.746440
     20          1           0       -2.675830    7.091870    2.527330
     21          6           0       -0.810530    5.726700    0.067170
     22          1           0       -1.976400    7.526930    0.254650
     23          1           0        0.248160    3.859930    0.184090
     24          6           0       -0.388080    6.012980   -1.364020
     25          1           0        0.525870    5.469900   -1.617020
     26          1           0       -0.193080    7.079460   -1.500480
     27          8           0       -1.882940    5.368600   -2.834560
     28          8           0       -2.833310    4.480210   -3.519720
     29          1           0       -2.212820    4.002110   -4.099770
     30          1           0       -1.174530    5.712750   -2.063120
 ---------------------------------------------------------------------
                    Distance matrix (angstroms):
                    1          2          3          4          5
     1  C    0.000000
     2  C    1.389972   0.000000
     3  C    1.389575   2.402934   0.000000
     4  H    1.087213   2.152431   2.152175   0.000000
     5  C    2.413731   2.780406   1.393204   3.399478   0.000000
     6  H    2.148593   3.388539   1.087282   2.477054   2.152035
     7  C    2.416998   1.396251   2.782625   3.402771   2.410206
     8  H    2.143920   1.087691   3.385450   2.469218   3.868075
     9  C    2.818928   2.437913   2.436346   3.906141   1.405807
    10  H    3.372099   3.862242   2.116857   4.261836   1.083107
    11  C    3.676622   2.398906   4.175120   4.549633   3.695189
    12  C    4.232043   3.718960   3.745439   5.319215   2.476319
    13  C    4.826745   3.673917   5.037177   5.787480   4.210887
    14  H    4.015462   2.628407   4.802115   4.699290   4.566764
    15  C    5.049745   4.184876   4.868889   6.107257   3.742325
    16  H    5.781878   4.539784   6.092126   6.687757   5.298205
    17  C    6.423818   5.580242   6.141397   7.489642   4.912494
    18  C    5.152269   4.912164   4.332575   6.218182   2.939882
    19  C    6.502137   6.140900   5.724462   7.577627   4.332237
    20  H    5.061581   5.117872   4.006886   6.066843   2.667565
    21  C    7.055090   6.429928   6.508721   8.141876   5.158547
    22  H    7.276086   7.052622   6.357196   8.328978   4.975601
    23  H    7.156832   6.170520   7.023528   8.191909   5.864856
    24  C    8.574053   7.921939   8.011984   9.660678   6.649271
    25  H    9.004579   8.218032   8.579093  10.081379   7.258326
    26  H    9.036598   8.496048   8.357344  10.120218   6.975051
    27  O    9.629194   9.008218   9.047884  10.694118   7.716183
    28  O   10.212144   9.578972   9.688610  11.239835   8.427839
    29  H   10.801753  10.072934  10.358721  11.832104   9.101313
    30  H    9.012436   8.379335   8.431330  10.093006   7.074072
                    6          7          8          9         10
     6  H    0.000000
     7  C    3.869904   0.000000
     8  H    4.281902   2.160207   0.000000
     9  C    3.417954   1.407644   3.423809   0.000000
    10  H    2.425106   3.411668   4.949700   2.182994   0.000000
    11  C    5.262380   1.392871   2.628787   2.432037   4.604672
    12  C    4.625037   2.433683   4.592331   1.413559   2.761154
    13  C    6.100768   2.410308   4.013377   2.806301   4.899536
    14  H    5.870624   2.157771   2.387134   3.419458   5.545564
    15  C    5.841704   2.788962   4.811659   2.433711   4.156128
    16  H    7.164036   3.391612   4.687379   3.893889   5.976102
    17  C    7.057035   4.184674   6.177915   3.718982   5.118062
    18  C    4.982385   3.741833   5.868267   2.475767   2.668273
    19  C    6.363697   4.868264   7.027797   3.744895   4.006884
    20  H    4.446201   4.155803   6.155502   2.760318   2.022090
    21  C    7.287871   5.055668   7.169076   4.238358   5.067428
    22  H    6.860502   5.838007   7.986403   4.620214   4.438586
    23  H    7.986027   4.804306   6.619350   4.587541   6.153458
    24  C    8.760872   6.537292   8.620994   5.757752   6.478159
    25  H    9.399206   6.823536   8.813012   6.229850   7.208940
    26  H    9.022189   7.138344   9.257336   6.232797   6.668095
    27  O    9.749722   7.666697   9.691252   6.900278   7.495448
    28  O   10.383182   8.298522  10.207289   7.624506   8.249278
    29  H   11.105949   8.770943  10.634370   8.198784   8.987926
    30  H    9.156606   7.008983   9.078417   6.221416   6.870014
                   11         12         13         14         15
    11  C    0.000000
    12  C    2.806091   0.000000
    13  C    1.387580   2.431423   0.000000
    14  H    1.087637   3.893693   2.142560   0.000000
    15  C    2.410543   1.406973   1.392981   3.392009   0.000000
    16  H    2.142263   3.418914   1.087624   2.455346   2.158020
    17  C    3.673677   2.437634   2.398489   4.539675   1.396066
    18  C    4.209781   1.404953   3.693341   5.297109   2.408066
    19  C    5.036007   2.435783   4.173319   6.090948   2.780730
    20  H    4.898636   2.182016   4.602986   5.975232   3.409633
    21  C    4.831694   2.825232   3.680514   5.786515   2.421790
    22  H    6.098394   3.414601   5.261004   7.161942   3.868378
    23  H    4.004570   3.420365   2.619831   4.678024   2.155159
    24  C    6.188251   4.344648   4.927506   7.069463   3.816997
    25  H    6.269780   4.847217   4.927128   7.041331   4.042847
    26  H    6.918103   4.838720   5.719063   7.841772   4.527795
    27  O    7.319941   5.565060   6.102628   8.153959   5.093034
    28  O    7.918863   6.398200   6.769558   8.676436   5.910808
    29  H    8.251964   6.949904   7.037277   8.937679   6.293201
    30  H    6.667864   4.833075   5.421618   7.535869   4.341039
                   16         17         18         19         20
    16  H    0.000000
    17  C    2.628102   0.000000
    18  C    4.564884   2.778633   0.000000
    19  C    4.800237   2.401157   1.392833   0.000000
    20  H    5.543833   3.860418   1.083085   2.116240   0.000000
    21  C    4.018030   1.392544   2.418292   1.391814   3.375710
    22  H    5.870504   3.390069   2.147417   1.087697   2.417344
    23  H    2.377278   1.088010   3.866636   3.387356   4.948326
    24  C    5.017918   2.530053   3.810465   2.525100   4.641165
    25  H    4.793574   2.660578   4.563698   3.402311   5.482454
    26  H    5.889134   3.354229   4.068416   2.709311   4.731538
    27  O    6.129755   3.929401   4.991361   3.801039   5.687548
    28  O    6.738520   4.885493   5.937026   4.920287   6.588807
    29  H    6.856975   5.174624   6.593149   5.537725   7.326626
    30  H    5.488997   3.102441   4.256399   2.987749   5.022759
                   21         22         23         24         25
    21  C    0.000000
    22  H    2.152958   0.000000
    23  H    2.149262   4.289584   0.000000
    24  C    1.519449   2.726701   2.727099   0.000000
    25  H    2.165273   3.741106   2.431691   1.092817   0.000000
    26  H    2.160725   2.541838   3.660306   1.092715   1.766679
    27  O    3.114215   3.769661   3.991230   2.193700   2.700931
    28  O    4.302459   4.925715   4.857820   3.602163   3.985454
    29  H    4.722713   5.607247   4.942479   3.854556   3.977295
    30  H    2.161209   3.050623   3.241441   1.094250   1.774638
                   26         27         28         29         30
    26  H    0.000000
    27  O    2.749989   0.000000
    28  O    4.219508   1.470335   0.000000
    29  H    4.506189   1.891262   0.974703   0.000000
    30  H    1.774177   1.102453   2.528318   2.855220   0.000000
 Stoichiometry    C15H13O2(2)
 Framework group  C1[X(C15H13O2)]
 Deg. of freedom    84
 Full point group                 C1      NOp   1
 Largest Abelian subgroup         C1      NOp   1
 Largest concise Abelian subgroup C1      NOp   1
                         Standard orientation:                         
 ---------------------------------------------------------------------
 Center     Atomic      Atomic             Coordinates (Angstroms)
 Number     Number       Type             X           Y           Z
 ---------------------------------------------------------------------
      1          6           0       -4.710223   -0.367916    0.590033
      2          6           0       -4.022692    0.831672    0.447512
      3          6           0       -4.031228   -1.571241    0.442067
      4          1           0       -5.773616   -0.364651    0.816344
      5          6           0       -2.668481   -1.578660    0.152442
      6          1           0       -4.566053   -2.511350    0.553151
      7          6           0       -2.656930    0.831512    0.157323
      8          1           0       -4.559240    1.770531    0.564700
      9          6           0       -1.952876   -0.377743    0.004118
     10          1           0       -2.194224   -2.546893    0.048870
     11          6           0       -2.002570    2.053714    0.022698
     12          6           0       -0.570524   -0.339274   -0.288750
     13          6           0       -0.645584    2.090871   -0.264684
     14          1           0       -2.548979    2.986528    0.142077
     15          6           0        0.070474    0.906242   -0.420600
     16          1           0       -0.147739    3.052513   -0.366273
     17          6           0        1.434524    0.982110   -0.708021
     18          6           0        0.206866   -1.497715   -0.454791
     19          6           0        1.567374   -1.415136   -0.741467
     20          1           0       -0.215777   -2.490902   -0.365207
     21          6           0        2.189002   -0.176748   -0.872306
     22          1           0        2.144822   -2.329219   -0.860165
     23          1           0        1.914787    1.953804   -0.802480
     24          6           0        3.675685   -0.094930   -1.175298
     25          1           0        3.929919    0.868600   -1.623879
     26          1           0        3.967842   -0.879339   -1.877704
     27          8           0        4.918218   -0.252941    0.625664
     28          8           0        5.398150    0.032805    1.985773
     29          1           0        5.959538    0.806680    1.796018
     30          1           0        4.260879   -0.215756   -0.258602
 ---------------------------------------------------------------------
 Rotational constants (GHZ):           1.1327859           0.2129955           0.1984235
 Standard basis: 6-311+G(2df,2p) (5D, 7F)
 There are   780 symmetry adapted cartesian basis functions of A   symmetry.
 There are   695 symmetry adapted basis functions of A   symmetry.
   695 basis functions,  1027 primitive gaussians,   780 cartesian basis functions
    60 alpha electrons       59 beta electrons
       nuclear repulsion energy      1072.2722463707 Hartrees.
 NAtoms=   30 NActive=   30 NUniq=   30 SFac= 1.00D+00 NAtFMM=   60 NAOKFM=F Big=F
 Integral buffers will be    131072 words long.
 Raffenetti 2 integral format.
 Two-electron integral symmetry is turned on.
 One-electron integrals computed using PRISM.
 NBasis=   695 RedAO= T EigKep=  1.57D-06  NBF=   695
 NBsUse=   687 1.00D-06 EigRej=  9.67D-07 NBFU=   687
 ExpMin= 4.38D-02 ExpMax= 8.59D+03 ExpMxC= 1.30D+03 IAcc=2 IRadAn=         4 AccDes= 0.00D+00
 Harris functional with IExCor= 1009 and IRadAn=       4 diagonalized for initial guess.
 HarFok:  IExCor= 1009 AccDes= 0.00D+00 IRadAn=         4 IDoV= 1 UseB2=F ITyADJ=14
 ICtDFT=  3500011 ScaDFX=  1.000000  1.000000  1.000000  1.000000
 FoFCou: FMM=F IPFlag=           8 FMFlag=      100000 FMFlg1=           0
         NFxFlg=           0 DoJE=T BraDBF=F KetDBF=T FulRan=T
         wScrn=  0.000000 ICntrl=       500 IOpCl=  0 I1Cent=   200000004 NGrid=           0
         NMat0=    1 NMatS0=      1 NMatT0=    0 NMatD0=    1 NMtDS0=    0 NMtDT0=    0
 Petite list used in FoFCou.
 Initial guess <Sx>= 0.0000 <Sy>= 0.0000 <Sz>= 0.5000 <S**2>= 0.7500 S= 0.5000
 Requested convergence on RMS density matrix=1.00D-08 within 128 cycles.
 Requested convergence on MAX density matrix=1.00D-06.
 Requested convergence on             energy=1.00D-06.
 No special actions if energy rises.
 Spurious integrated density or basis function:
 NE=  119 NElCor=    0 El error=1.56D-03 rel=1.31D-05 Tolerance=1.00D-03
 Shell    60     absolute error=1.41D-02              Tolerance=1.20D-02
 Shell    60       signed error=1.41D-02              Tolerance=1.00D-01
 Spurious integrated density or basis function:
 NE=  119 NElCor=    0 El error=2.24D-03 rel=1.88D-05 Tolerance=1.00D-03
 Shell    60     absolute error=1.41D-02              Tolerance=1.20D-02
 Shell    60       signed error=1.41D-02              Tolerance=1.00D-01
 Spurious integrated density or basis function:
 NE=  119 NElCor=    0 El error=2.92D-03 rel=2.45D-05 Tolerance=1.00D-03
 Shell    60     absolute error=1.41D-02              Tolerance=1.20D-02
 Shell    60       signed error=1.41D-02              Tolerance=1.00D-01
 Spurious integrated density or basis function:
 NE=  119 NElCor=    0 El error=2.87D-03 rel=2.42D-05 Tolerance=1.00D-03
 Shell    60     absolute error=1.41D-02              Tolerance=1.20D-02
 Shell    60       signed error=1.41D-02              Tolerance=1.00D-01
 Spurious integrated density or basis function:
 NE=  119 NElCor=    0 El error=2.94D-03 rel=2.47D-05 Tolerance=1.00D-03
 Shell    60     absolute error=1.41D-02              Tolerance=1.20D-02
 Shell    60       signed error=1.41D-02              Tolerance=1.00D-01
 Spurious integrated density or basis function:
 NE=  119 NElCor=    0 El error=2.94D-03 rel=2.47D-05 Tolerance=1.00D-03
 Shell    60     absolute error=1.41D-02              Tolerance=1.20D-02
 Shell    60       signed error=1.41D-02              Tolerance=1.00D-01
 Spurious integrated density or basis function:
 NE=  119 NElCor=    0 El error=2.94D-03 rel=2.47D-05 Tolerance=1.00D-03
 Shell    60     absolute error=1.41D-02              Tolerance=1.20D-02
 Shell    60       signed error=1.41D-02              Tolerance=1.00D-01
 Spurious integrated density or basis function:
 NE=  119 NElCor=    0 El error=2.94D-03 rel=2.47D-05 Tolerance=1.00D-03
 Shell    60     absolute error=1.41D-02              Tolerance=1.20D-02
 Shell    60       signed error=1.41D-02              Tolerance=1.00D-01
 Spurious integrated density or basis function:
 NE=  119 NElCor=    0 El error=2.94D-03 rel=2.47D-05 Tolerance=1.00D-03
 Shell    60     absolute error=1.41D-02              Tolerance=1.20D-02
 Shell    60       signed error=1.41D-02              Tolerance=1.00D-01
 Spurious integrated density or basis function:
 NE=  119 NElCor=    0 El error=2.94D-03 rel=2.47D-05 Tolerance=1.00D-03
 Shell    60     absolute error=1.41D-02              Tolerance=1.20D-02
 Shell    60       signed error=1.41D-02              Tolerance=1.00D-01
 Spurious integrated density or basis function:
 NE=  119 NElCor=    0 El error=2.94D-03 rel=2.47D-05 Tolerance=1.00D-03
 Shell    60     absolute error=1.41D-02              Tolerance=1.20D-02
 Shell    60       signed error=1.41D-02              Tolerance=1.00D-01
 Spurious integrated density or basis function:
 NE=  119 NElCor=    0 El error=2.94D-03 rel=2.47D-05 Tolerance=1.00D-03
 Shell    60     absolute error=1.41D-02              Tolerance=1.20D-02
 Shell    60       signed error=1.41D-02              Tolerance=1.00D-01
 Spurious integrated density or basis function:
 NE=  119 NElCor=    0 El error=2.94D-03 rel=2.47D-05 Tolerance=1.00D-03
 Shell    60     absolute error=1.41D-02              Tolerance=1.20D-02
 Shell    60       signed error=1.41D-02              Tolerance=1.00D-01
 Spurious integrated density or basis function:
 NE=  119 NElCor=    0 El error=2.94D-03 rel=2.47D-05 Tolerance=1.00D-03
 Shell    60     absolute error=1.41D-02              Tolerance=1.20D-02
 Shell    60       signed error=1.41D-02              Tolerance=1.00D-01
 Spurious integrated density or basis function:
 NE=  119 NElCor=    0 El error=2.94D-03 rel=2.47D-05 Tolerance=1.00D-03
 Shell    60     absolute error=1.41D-02              Tolerance=1.20D-02
 Shell    60       signed error=1.41D-02              Tolerance=1.00D-01
 Spurious integrated density or basis function:
 NE=  119 NElCor=    0 El error=2.94D-03 rel=2.47D-05 Tolerance=1.00D-03
 Shell    60     absolute error=1.41D-02              Tolerance=1.20D-02
 Shell    60       signed error=1.41D-02              Tolerance=1.00D-01
 Spurious integrated density or basis function:
 NE=  119 NElCor=    0 El error=2.94D-03 rel=2.47D-05 Tolerance=1.00D-03
 Shell    60     absolute error=1.41D-02              Tolerance=1.20D-02
 Shell    60       signed error=1.41D-02              Tolerance=1.00D-01
 Spurious integrated density or basis function:
 NE=  119 NElCor=    0 El error=2.94D-03 rel=2.47D-05 Tolerance=1.00D-03
 Shell    60     absolute error=1.41D-02              Tolerance=1.20D-02
 Shell    60       signed error=1.41D-02              Tolerance=1.00D-01
 Spurious integrated density or basis function:
 NE=  119 NElCor=    0 El error=2.94D-03 rel=2.47D-05 Tolerance=1.00D-03
 Shell    60     absolute error=1.41D-02              Tolerance=1.20D-02
 Shell    60       signed error=1.41D-02              Tolerance=1.00D-01
 Spurious integrated density or basis function:
 NE=  119 NElCor=    0 El error=2.94D-03 rel=2.47D-05 Tolerance=1.00D-03
 Shell    60     absolute error=1.41D-02              Tolerance=1.20D-02
 Shell    60       signed error=1.41D-02              Tolerance=1.00D-01
 Restarting incremental Fock formation.
 Spurious integrated density or basis function:
 NE=  119 NElCor=    0 El error=2.94D-03 rel=2.47D-05 Tolerance=1.00D-03
 Shell    60     absolute error=1.41D-02              Tolerance=1.20D-02
 Shell    60       signed error=1.41D-02              Tolerance=1.00D-01
 Spurious integrated density or basis function:
 NE=  119 NElCor=    0 El error=2.94D-03 rel=2.47D-05 Tolerance=1.00D-03
 Shell    60     absolute error=1.41D-02              Tolerance=1.20D-02
 Shell    60       signed error=1.41D-02              Tolerance=1.00D-01
 Spurious integrated density or basis function:
 NE=  119 NElCor=    0 El error=2.94D-03 rel=2.47D-05 Tolerance=1.00D-03
 Shell    60     absolute error=1.41D-02              Tolerance=1.20D-02
 Shell    60       signed error=1.41D-02              Tolerance=1.00D-01
 Spurious integrated density or basis function:
 NE=  119 NElCor=    0 El error=2.94D-03 rel=2.47D-05 Tolerance=1.00D-03
 Shell    60     absolute error=1.41D-02              Tolerance=1.20D-02
 Shell    60       signed error=1.41D-02              Tolerance=1.00D-01
 SCF Done:  E(UM062X) =  -729.582518651     A.U. after   24 cycles
            NFock= 24  Conv=0.46D-08     -V/T= 2.0034
 <Sx>= 0.0000 <Sy>= 0.0000 <Sz>= 0.5000 <S**2>= 0.7609 S= 0.5054
 <L.S>= 0.000000000000E+00
 Annihilation of the first spin contaminant:
 S**2 before annihilation     0.7609,   after     0.7501

 **********************************************************************

            Population analysis using the SCF density.

 **********************************************************************

 Orbital symmetries:
 Alpha Orbitals:
       Occupied  (A) (A) (A) (A) (A) (A) (A) (A) (A) (A) (A) (A)
                 (A) (A) (A) (A) (A) (A) (A) (A) (A) (A) (A) (A)
                 (A) (A) (A) (A) (A) (A) (A) (A) (A) (A) (A) (A)
                 (A) (A) (A) (A) (A) (A) (A) (A) (A) (A) (A) (A)
                 (A) (A) (A) (A) (A) (A) (A) (A) (A) (A) (A) (A)
       Virtual   (A) (A) (A) (A) (A) (A) (A) (A) (A) (A) (A) (A)
                 (A) (A) (A) (A) (A) (A) (A) (A) (A) (A) (A) (A)
                 (A) (A) (A) (A) (A) (A) (A) (A) (A) (A) (A) (A)
                 (A) (A) (A) (A) (A) (A) (A) (A) (A) (A) (A) (A)
                 (A) (A) (A) (A) (A) (A) (A) (A) (A) (A) (A) (A)
                 (A) (A) (A) (A) (A) (A) (A) (A) (A) (A) (A) (A)
                 (A) (A) (A) (A) (A) (A) (A) (A) (A) (A) (A) (A)
                 (A) (A) (A) (A) (A) (A) (A) (A) (A) (A) (A) (A)
                 (A) (A) (A) (A) (A) (A) (A) (A) (A) (A) (A) (A)
                 (A) (A) (A) (A) (A) (A) (A) (A) (A) (A) (A) (A)
                 (A) (A) (A) (A) (A) (A) (A) (A) (A) (A) (A) (A)
                 (A) (A) (A) (A) (A) (A) (A) (A) (A) (A) (A) (A)
                 (A) (A) (A) (A) (A) (A) (A) (A) (A) (A) (A) (A)
                 (A) (A) (A) (A) (A) (A) (A) (A) (A) (A) (A) (A)
                 (A) (A) (A) (A) (A) (A) (A) (A) (A) (A) (A) (A)
                 (A) (A) (A) (A) (A) (A) (A) (A) (A) (A) (A) (A)
                 (A) (A) (A) (A) (A) (A) (A) (A) (A) (A) (A) (A)
                 (A) (A) (A) (A) (A) (A) (A) (A) (A) (A) (A) (A)
                 (A) (A) (A) (A) (A) (A) (A) (A) (A) (A) (A) (A)
                 (A) (A) (A) (A) (A) (A) (A) (A) (A) (A) (A) (A)
                 (A) (A) (A) (A) (A) (A) (A) (A) (A) (A) (A) (A)
                 (A) (A) (A) (A) (A) (A) (A) (A) (A) (A) (A) (A)
                 (A) (A) (A) (A) (A) (A) (A) (A) (A) (A) (A) (A)
                 (A) (A) (A) (A) (A) (A) (A) (A) (A) (A) (A) (A)
                 (A) (A) (A) (A) (A) (A) (A) (A) (A) (A) (A) (A)
                 (A) (A) (A) (A) (A) (A) (A) (A) (A) (A) (A) (A)
                 (A) (A) (A) (A) (A) (A) (A) (A) (A) (A) (A) (A)
                 (A) (A) (A) (A) (A) (A) (A) (A) (A) (A) (A) (A)
                 (A) (A) (A) (A) (A) (A) (A) (A) (A) (A) (A) (A)
                 (A) (A) (A) (A) (A) (A) (A) (A) (A) (A) (A) (A)
                 (A) (A) (A) (A) (A) (A) (A) (A) (A) (A) (A) (A)
                 (A) (A) (A) (A) (A) (A) (A) (A) (A) (A) (A) (A)
                 (A) (A) (A) (A) (A) (A) (A) (A) (A) (A) (A) (A)
                 (A) (A) (A) (A) (A) (A) (A) (A) (A) (A) (A) (A)
                 (A) (A) (A) (A) (A) (A) (A) (A) (A) (A) (A) (A)
                 (A) (A) (A) (A) (A) (A) (A) (A) (A) (A) (A) (A)
                 (A) (A) (A) (A) (A) (A) (A) (A) (A) (A) (A) (A)
                 (A) (A) (A) (A) (A) (A) (A) (A) (A) (A) (A) (A)
                 (A) (A) (A) (A) (A) (A) (A) (A) (A) (A) (A) (A)
                 (A) (A) (A) (A) (A) (A) (A) (A) (A) (A) (A) (A)
                 (A) (A) (A) (A) (A) (A) (A) (A) (A) (A) (A) (A)
                 (A) (A) (A) (A) (A) (A) (A) (A) (A) (A) (A) (A)
                 (A) (A) (A) (A) (A) (A) (A) (A) (A) (A) (A) (A)
                 (A) (A) (A) (A) (A) (A) (A) (A) (A) (A) (A) (A)
                 (A) (A) (A) (A) (A) (A) (A) (A) (A) (A) (A) (A)
                 (A) (A) (A) (A) (A) (A) (A) (A) (A) (A) (A) (A)
                 (A) (A) (A) (A) (A) (A) (A) (A) (A) (A) (A) (A)
                 (A) (A) (A) (A) (A) (A) (A) (A) (A) (A) (A) (A)
                 (A) (A) (A) (A) (A) (A) (A) (A) (A) (A) (A) (A)
                 (A) (A) (A) (A) (A) (A) (A) (A) (A) (A) (A) (A)
                 (A) (A) (A) (A) (A) (A) (A) (A) (A) (A) (A) (A)
                 (A) (A) (A) (A) (A) (A) (A) (A) (A) (A) (A) (A)
                 (A) (A) (A)
 Beta  Orbitals:
       Occupied  (A) (A) (A) (A) (A) (A) (A) (A) (A) (A) (A) (A)
                 (A) (A) (A) (A) (A) (A) (A) (A) (A) (A) (A) (A)
                 (A) (A) (A) (A) (A) (A) (A) (A) (A) (A) (A) (A)
                 (A) (A) (A) (A) (A) (A) (A) (A) (A) (A) (A) (A)
                 (A) (A) (A) (A) (A) (A) (A) (A) (A) (A) (A)
       Virtual   (A) (A) (A) (A) (A) (A) (A) (A) (A) (A) (A) (A)
                 (A) (A) (A) (A) (A) (A) (A) (A) (A) (A) (A) (A)
                 (A) (A) (A) (A) (A) (A) (A) (A) (A) (A) (A) (A)
                 (A) (A) (A) (A) (A) (A) (A) (A) (A) (A) (A) (A)
                 (A) (A) (A) (A) (A) (A) (A) (A) (A) (A) (A) (A)
                 (A) (A) (A) (A) (A) (A) (A) (A) (A) (A) (A) (A)
                 (A) (A) (A) (A) (A) (A) (A) (A) (A) (A) (A) (A)
                 (A) (A) (A) (A) (A) (A) (A) (A) (A) (A) (A) (A)
                 (A) (A) (A) (A) (A) (A) (A) (A) (A) (A) (A) (A)
                 (A) (A) (A) (A) (A) (A) (A) (A) (A) (A) (A) (A)
                 (A) (A) (A) (A) (A) (A) (A) (A) (A) (A) (A) (A)
                 (A) (A) (A) (A) (A) (A) (A) (A) (A) (A) (A) (A)
                 (A) (A) (A) (A) (A) (A) (A) (A) (A) (A) (A) (A)
                 (A) (A) (A) (A) (A) (A) (A) (A) (A) (A) (A) (A)
                 (A) (A) (A) (A) (A) (A) (A) (A) (A) (A) (A) (A)
                 (A) (A) (A) (A) (A) (A) (A) (A) (A) (A) (A) (A)
                 (A) (A) (A) (A) (A) (A) (A) (A) (A) (A) (A) (A)
                 (A) (A) (A) (A) (A) (A) (A) (A) (A) (A) (A) (A)
                 (A) (A) (A) (A) (A) (A) (A) (A) (A) (A) (A) (A)
                 (A) (A) (A) (A) (A) (A) (A) (A) (A) (A) (A) (A)
                 (A) (A) (A) (A) (A) (A) (A) (A) (A) (A) (A) (A)
                 (A) (A) (A) (A) (A) (A) (A) (A) (A) (A) (A) (A)
                 (A) (A) (A) (A) (A) (A) (A) (A) (A) (A) (A) (A)
                 (A) (A) (A) (A) (A) (A) (A) (A) (A) (A) (A) (A)
                 (A) (A) (A) (A) (A) (A) (A) (A) (A) (A) (A) (A)
                 (A) (A) (A) (A) (A) (A) (A) (A) (A) (A) (A) (A)
                 (A) (A) (A) (A) (A) (A) (A) (A) (A) (A) (A) (A)
                 (A) (A) (A) (A) (A) (A) (A) (A) (A) (A) (A) (A)
                 (A) (A) (A) (A) (A) (A) (A) (A) (A) (A) (A) (A)
                 (A) (A) (A) (A) (A) (A) (A) (A) (A) (A) (A) (A)
                 (A) (A) (A) (A) (A) (A) (A) (A) (A) (A) (A) (A)
                 (A) (A) (A) (A) (A) (A) (A) (A) (A) (A) (A) (A)
                 (A) (A) (A) (A) (A) (A) (A) (A) (A) (A) (A) (A)
                 (A) (A) (A) (A) (A) (A) (A) (A) (A) (A) (A) (A)
                 (A) (A) (A) (A) (A) (A) (A) (A) (A) (A) (A) (A)
                 (A) (A) (A) (A) (A) (A) (A) (A) (A) (A) (A) (A)
                 (A) (A) (A) (A) (A) (A) (A) (A) (A) (A) (A) (A)
                 (A) (A) (A) (A) (A) (A) (A) (A) (A) (A) (A) (A)
                 (A) (A) (A) (A) (A) (A) (A) (A) (A) (A) (A) (A)
                 (A) (A) (A) (A) (A) (A) (A) (A) (A) (A) (A) (A)
                 (A) (A) (A) (A) (A) (A) (A) (A) (A) (A) (A) (A)
                 (A) (A) (A) (A) (A) (A) (A) (A) (A) (A) (A) (A)
                 (A) (A) (A) (A) (A) (A) (A) (A) (A) (A) (A) (A)
                 (A) (A) (A) (A) (A) (A) (A) (A) (A) (A) (A) (A)
                 (A) (A) (A) (A) (A) (A) (A) (A) (A) (A) (A) (A)
                 (A) (A) (A) (A) (A) (A) (A) (A) (A) (A) (A) (A)
                 (A) (A) (A) (A) (A) (A) (A) (A) (A) (A) (A) (A)
                 (A) (A) (A) (A) (A) (A) (A) (A) (A) (A) (A) (A)
                 (A) (A) (A) (A) (A) (A) (A) (A) (A) (A) (A) (A)
                 (A) (A) (A) (A) (A) (A) (A) (A) (A) (A) (A) (A)
                 (A) (A) (A) (A) (A) (A) (A) (A) (A) (A) (A) (A)
                 (A) (A) (A) (A) (A) (A) (A) (A) (A) (A) (A) (A)
                 (A) (A) (A) (A)
 The electronic state is 2-A.
 Alpha  occ. eigenvalues --  -19.72204 -19.71610 -10.55378 -10.55339 -10.55229
 Alpha  occ. eigenvalues --  -10.54840 -10.54829 -10.54694 -10.54663 -10.54532
 Alpha  occ. eigenvalues --  -10.54501 -10.54493 -10.54419 -10.54380 -10.54368
 Alpha  occ. eigenvalues --  -10.54368 -10.53450  -1.25913  -1.05571  -1.00192
 Alpha  occ. eigenvalues --   -0.96164  -0.91832  -0.88971  -0.86306  -0.84080
 Alpha  occ. eigenvalues --   -0.81119  -0.78572  -0.71865  -0.71758  -0.69374
 Alpha  occ. eigenvalues --   -0.66959  -0.65053  -0.61046  -0.59591  -0.58218
 Alpha  occ. eigenvalues --   -0.57796  -0.55366  -0.54870  -0.54054  -0.51240
 Alpha  occ. eigenvalues --   -0.50258  -0.50019  -0.48880  -0.48363  -0.47331
 Alpha  occ. eigenvalues --   -0.45944  -0.45659  -0.44332  -0.42552  -0.42386
 Alpha  occ. eigenvalues --   -0.41610  -0.40811  -0.39284  -0.38668  -0.38601
 Alpha  occ. eigenvalues --   -0.37265  -0.33738  -0.32382  -0.26922  -0.26124
 Alpha virt. eigenvalues --   -0.02376  -0.01882   0.00815   0.01324   0.01666
 Alpha virt. eigenvalues --    0.01838   0.02604   0.03119   0.03296   0.04223
 Alpha virt. eigenvalues --    0.04618   0.04971   0.05732   0.05928   0.06969
 Alpha virt. eigenvalues --    0.07164   0.07289   0.07586   0.08281   0.08771
 Alpha virt. eigenvalues --    0.09050   0.09895   0.10424   0.11134   0.11520
 Alpha virt. eigenvalues --    0.11982   0.12413   0.13045   0.13824   0.13892
 Alpha virt. eigenvalues --    0.14425   0.14641   0.14859   0.15295   0.15794
 Alpha virt. eigenvalues --    0.16713   0.16820   0.17295   0.18120   0.18372
 Alpha virt. eigenvalues --    0.18557   0.18666   0.18969   0.19331   0.19662
 Alpha virt. eigenvalues --    0.19808   0.20861   0.21016   0.21231   0.21497
 Alpha virt. eigenvalues --    0.21884   0.21955   0.22178   0.22535   0.22868
 Alpha virt. eigenvalues --    0.23001   0.23757   0.24210   0.24943   0.25015
 Alpha virt. eigenvalues --    0.25289   0.25372   0.26728   0.27067   0.27578
 Alpha virt. eigenvalues --    0.28036   0.28220   0.28441   0.29356   0.29581
 Alpha virt. eigenvalues --    0.30184   0.30585   0.31183   0.31605   0.32092
 Alpha virt. eigenvalues --    0.32647   0.33043   0.33576   0.33758   0.34537
 Alpha virt. eigenvalues --    0.34896   0.35815   0.36599   0.37391   0.37899
 Alpha virt. eigenvalues --    0.38818   0.39003   0.40980   0.41310   0.43175
 Alpha virt. eigenvalues --    0.44827   0.45759   0.47240   0.48385   0.49259
 Alpha virt. eigenvalues --    0.50503   0.50690   0.51278   0.52039   0.52186
 Alpha virt. eigenvalues --    0.52236   0.52850   0.53682   0.54683   0.55111
 Alpha virt. eigenvalues --    0.55336   0.55665   0.56065   0.56547   0.56958
 Alpha virt. eigenvalues --    0.57557   0.58153   0.58975   0.59313   0.59751
 Alpha virt. eigenvalues --    0.60217   0.60303   0.61315   0.61797   0.62191
 Alpha virt. eigenvalues --    0.62673   0.63471   0.64363   0.65243   0.65507
 Alpha virt. eigenvalues --    0.65957   0.66097   0.66759   0.67048   0.67409
 Alpha virt. eigenvalues --    0.68727   0.68977   0.69485   0.69909   0.70140
 Alpha virt. eigenvalues --    0.70242   0.70585   0.71357   0.72172   0.72237
 Alpha virt. eigenvalues --    0.72622   0.72938   0.73709   0.74327   0.74706
 Alpha virt. eigenvalues --    0.75256   0.75651   0.76623   0.77160   0.78059
 Alpha virt. eigenvalues --    0.78154   0.78760   0.79202   0.79330   0.79974
 Alpha virt. eigenvalues --    0.80617   0.80759   0.82186   0.82966   0.83545
 Alpha virt. eigenvalues --    0.83952   0.84810   0.85659   0.86757   0.87175
 Alpha virt. eigenvalues --    0.87817   0.88144   0.88692   0.89823   0.91037
 Alpha virt. eigenvalues --    0.91192   0.91708   0.92989   0.94104   0.94845
 Alpha virt. eigenvalues --    0.95283   0.96112   0.98156   0.98856   0.99302
 Alpha virt. eigenvalues --    1.00502   1.01722   1.02170   1.02428   1.03553
 Alpha virt. eigenvalues --    1.04669   1.04938   1.05263   1.06022   1.06845
 Alpha virt. eigenvalues --    1.08272   1.08868   1.09191   1.11165   1.11286
 Alpha virt. eigenvalues --    1.12246   1.12838   1.13612   1.13940   1.14695
 Alpha virt. eigenvalues --    1.15217   1.15845   1.16091   1.16609   1.16980
 Alpha virt. eigenvalues --    1.18553   1.19173   1.20145   1.21334   1.21642
 Alpha virt. eigenvalues --    1.22685   1.23244   1.24619   1.25883   1.26717
 Alpha virt. eigenvalues --    1.26927   1.28421   1.28501   1.29979   1.30161
 Alpha virt. eigenvalues --    1.31195   1.31253   1.32338   1.32461   1.34136
 Alpha virt. eigenvalues --    1.34509   1.35193   1.35304   1.35790   1.36395
 Alpha virt. eigenvalues --    1.37080   1.38160   1.38419   1.40260   1.40624
 Alpha virt. eigenvalues --    1.40801   1.41050   1.41502   1.42046   1.42950
 Alpha virt. eigenvalues --    1.43446   1.45371   1.45866   1.46669   1.47114
 Alpha virt. eigenvalues --    1.47335   1.48405   1.49807   1.50694   1.51338
 Alpha virt. eigenvalues --    1.51851   1.52494   1.54596   1.55089   1.56010
 Alpha virt. eigenvalues --    1.57100   1.57379   1.57864   1.59905   1.62722
 Alpha virt. eigenvalues --    1.64405   1.65356   1.66974   1.68792   1.69283
 Alpha virt. eigenvalues --    1.70843   1.71917   1.72955   1.74212   1.74533
 Alpha virt. eigenvalues --    1.76856   1.78696   1.79368   1.80712   1.80994
 Alpha virt. eigenvalues --    1.82464   1.83102   1.83953   1.84966   1.85824
 Alpha virt. eigenvalues --    1.87923   1.88078   1.88606   1.91780   1.94178
 Alpha virt. eigenvalues --    1.96425   1.98849   2.00952   2.02389   2.05645
 Alpha virt. eigenvalues --    2.08103   2.10655   2.13553   2.14596   2.19209
 Alpha virt. eigenvalues --    2.22437   2.25128   2.29399   2.35723   2.37765
 Alpha virt. eigenvalues --    2.39113   2.45881   2.49756   2.51534   2.52644
 Alpha virt. eigenvalues --    2.54246   2.56267   2.58445   2.60074   2.61515
 Alpha virt. eigenvalues --    2.62620   2.63192   2.64113   2.65381   2.66503
 Alpha virt. eigenvalues --    2.70252   2.70750   2.71559   2.72357   2.74061
 Alpha virt. eigenvalues --    2.74890   2.76094   2.76791   2.76829   2.77745
 Alpha virt. eigenvalues --    2.78207   2.78679   2.79324   2.80238   2.80577
 Alpha virt. eigenvalues --    2.81104   2.82489   2.82908   2.83154   2.84222
 Alpha virt. eigenvalues --    2.84400   2.85655   2.86193   2.86359   2.86534
 Alpha virt. eigenvalues --    2.86995   2.87688   2.88382   2.88604   2.89655
 Alpha virt. eigenvalues --    2.89928   2.90419   2.90750   2.92068   2.92773
 Alpha virt. eigenvalues --    2.93203   2.93835   2.94493   2.94758   2.96762
 Alpha virt. eigenvalues --    2.97247   2.97304   2.97932   2.98704   3.02029
 Alpha virt. eigenvalues --    3.02347   3.03727   3.05168   3.06746   3.07026
 Alpha virt. eigenvalues --    3.07591   3.09729   3.10984   3.11313   3.12145
 Alpha virt. eigenvalues --    3.12391   3.12928   3.14027   3.14657   3.15114
 Alpha virt. eigenvalues --    3.15254   3.15890   3.16524   3.17556   3.17968
 Alpha virt. eigenvalues --    3.18503   3.19835   3.20312   3.21076   3.21676
 Alpha virt. eigenvalues --    3.22523   3.22962   3.23970   3.24579   3.25158
 Alpha virt. eigenvalues --    3.25960   3.27059   3.27683   3.28640   3.29372
 Alpha virt. eigenvalues --    3.29486   3.30084   3.30603   3.31218   3.32481
 Alpha virt. eigenvalues --    3.33721   3.34930   3.35356   3.35495   3.36166
 Alpha virt. eigenvalues --    3.37324   3.38459   3.39398   3.39679   3.40659
 Alpha virt. eigenvalues --    3.43506   3.43870   3.44912   3.45775   3.46450
 Alpha virt. eigenvalues --    3.46732   3.47572   3.48679   3.49553   3.50583
 Alpha virt. eigenvalues --    3.51283   3.51385   3.52873   3.53679   3.53884
 Alpha virt. eigenvalues --    3.54668   3.55427   3.56839   3.58080   3.59032
 Alpha virt. eigenvalues --    3.59786   3.60952   3.61758   3.62669   3.62772
 Alpha virt. eigenvalues --    3.63331   3.64096   3.64978   3.68768   3.69836
 Alpha virt. eigenvalues --    3.70466   3.71049   3.71740   3.71929   3.72821
 Alpha virt. eigenvalues --    3.75000   3.75113   3.76484   3.77601   3.77913
 Alpha virt. eigenvalues --    3.78174   3.79608   3.80599   3.80788   3.81440
 Alpha virt. eigenvalues --    3.81878   3.83027   3.84216   3.85392   3.87226
 Alpha virt. eigenvalues --    3.87708   3.89210   3.91248   3.92236   3.92832
 Alpha virt. eigenvalues --    3.93617   3.95830   3.97373   3.97756   3.98343
 Alpha virt. eigenvalues --    3.99981   4.00681   4.02696   4.03809   4.05035
 Alpha virt. eigenvalues --    4.07625   4.08140   4.08393   4.08665   4.10712
 Alpha virt. eigenvalues --    4.10901   4.11993   4.14232   4.14879   4.15289
 Alpha virt. eigenvalues --    4.17315   4.17779   4.19551   4.20190   4.22464
 Alpha virt. eigenvalues --    4.23750   4.25357   4.26325   4.28347   4.29009
 Alpha virt. eigenvalues --    4.29522   4.30398   4.30602   4.31430   4.33054
 Alpha virt. eigenvalues --    4.34203   4.34775   4.35111   4.35675   4.37318
 Alpha virt. eigenvalues --    4.38411   4.39473   4.39866   4.42081   4.42710
 Alpha virt. eigenvalues --    4.42801   4.43532   4.44943   4.45771   4.46859
 Alpha virt. eigenvalues --    4.47853   4.48670   4.49395   4.50049   4.51327
 Alpha virt. eigenvalues --    4.52068   4.52949   4.54285   4.54683   4.55951
 Alpha virt. eigenvalues --    4.57296   4.57754   4.57900   4.58818   4.60055
 Alpha virt. eigenvalues --    4.60921   4.63072   4.66499   4.68186   4.69794
 Alpha virt. eigenvalues --    4.71965   4.72847   4.74510   4.76049   4.77920
 Alpha virt. eigenvalues --    4.81418   4.82784   4.85192   4.86916   4.89184
 Alpha virt. eigenvalues --    4.90492   4.91319   4.94692   4.99759   5.00478
 Alpha virt. eigenvalues --    5.01891   5.02166   5.02509   5.04826   5.04978
 Alpha virt. eigenvalues --    5.07015   5.10218   5.12828   5.13494   5.14760
 Alpha virt. eigenvalues --    5.16415   5.18612   5.19573   5.21548   5.22454
 Alpha virt. eigenvalues --    5.26511   5.27011   5.33154   5.33706   5.36739
 Alpha virt. eigenvalues --    5.39044   5.40911   5.45973   5.46516   5.54063
 Alpha virt. eigenvalues --    5.54634   5.54953   5.57796   5.59937   5.61390
 Alpha virt. eigenvalues --    5.66213   5.67269   5.71197   5.73681   5.75374
 Alpha virt. eigenvalues --    5.81721   5.83640   5.86311   5.90459   5.95481
 Alpha virt. eigenvalues --    5.97727   6.01168   6.05166   6.26373   6.41192
 Alpha virt. eigenvalues --    6.42569   6.47373   6.64822   6.67922   6.71813
 Alpha virt. eigenvalues --    6.85664   6.90043   6.95665   7.01691   7.18949
 Alpha virt. eigenvalues --    7.29014   7.39694   7.44984   7.84965   8.13370
 Alpha virt. eigenvalues --   23.87896  24.13873  24.36667  24.56169  24.58989
 Alpha virt. eigenvalues --   24.65163  24.68091  24.71115  24.79430  24.80439
 Alpha virt. eigenvalues --   24.81976  24.91346  25.10864  25.15737  25.32216
 Alpha virt. eigenvalues --   49.97088  50.01176
  Beta  occ. eigenvalues --  -19.71672 -19.70332 -10.55396 -10.55341 -10.55219
  Beta  occ. eigenvalues --  -10.54846 -10.54826 -10.54701 -10.54660 -10.54533
  Beta  occ. eigenvalues --  -10.54501 -10.54495 -10.54419 -10.54365 -10.54362
  Beta  occ. eigenvalues --  -10.54357 -10.53261  -1.22929  -1.01520  -1.00154
  Beta  occ. eigenvalues --   -0.96107  -0.91776  -0.88862  -0.86265  -0.83794
  Beta  occ. eigenvalues --   -0.81107  -0.77905  -0.71767  -0.71685  -0.69185
  Beta  occ. eigenvalues --   -0.66826  -0.63688  -0.61031  -0.59423  -0.57820
  Beta  occ. eigenvalues --   -0.56717  -0.55333  -0.54017  -0.51219  -0.50243
  Beta  occ. eigenvalues --   -0.49992  -0.48837  -0.48296  -0.47335  -0.46352
  Beta  occ. eigenvalues --   -0.45889  -0.44952  -0.44031  -0.42230  -0.42015
  Beta  occ. eigenvalues --   -0.39738  -0.39369  -0.38635  -0.38467  -0.37234
  Beta  occ. eigenvalues --   -0.33763  -0.32399  -0.27101  -0.26065
  Beta virt. eigenvalues --   -0.11916  -0.02311  -0.01669   0.00947   0.01451
  Beta virt. eigenvalues --    0.01699   0.01928   0.02854   0.03181   0.03529
  Beta virt. eigenvalues --    0.04462   0.04677   0.05015   0.05782   0.06034
  Beta virt. eigenvalues --    0.07036   0.07290   0.07343   0.07751   0.08369
  Beta virt. eigenvalues --    0.08853   0.09518   0.09928   0.10484   0.11359
  Beta virt. eigenvalues --    0.11527   0.12023   0.12452   0.13142   0.13898
  Beta virt. eigenvalues --    0.13983   0.14506   0.14749   0.14936   0.15312
  Beta virt. eigenvalues --    0.15793   0.16792   0.16937   0.17319   0.18234
  Beta virt. eigenvalues --    0.18370   0.18689   0.18750   0.19133   0.19388
  Beta virt. eigenvalues --    0.19690   0.19872   0.20872   0.21029   0.21275
  Beta virt. eigenvalues --    0.21577   0.21930   0.22030   0.22211   0.22585
  Beta virt. eigenvalues --    0.22855   0.23171   0.23795   0.24228   0.25003
  Beta virt. eigenvalues --    0.25036   0.25337   0.25478   0.26745   0.27078
  Beta virt. eigenvalues --    0.27629   0.28089   0.28334   0.28511   0.29553
  Beta virt. eigenvalues --    0.29637   0.30417   0.30631   0.31341   0.31702
  Beta virt. eigenvalues --    0.32237   0.32766   0.33070   0.33604   0.33785
  Beta virt. eigenvalues --    0.34589   0.34997   0.35802   0.36696   0.37349
  Beta virt. eigenvalues --    0.37949   0.38855   0.39004   0.40977   0.41401
  Beta virt. eigenvalues --    0.43195   0.44852   0.45864   0.47576   0.48454
  Beta virt. eigenvalues --    0.49309   0.50671   0.50769   0.51303   0.52063
  Beta virt. eigenvalues --    0.52214   0.52257   0.52880   0.53803   0.54739
  Beta virt. eigenvalues --    0.55159   0.55424   0.55700   0.56084   0.56566
  Beta virt. eigenvalues --    0.56984   0.57589   0.58206   0.59019   0.59331
  Beta virt. eigenvalues --    0.59768   0.60240   0.60323   0.61337   0.61811
  Beta virt. eigenvalues --    0.62224   0.62712   0.63547   0.64402   0.65282
  Beta virt. eigenvalues --    0.65544   0.65978   0.66154   0.66800   0.67141
  Beta virt. eigenvalues --    0.67422   0.68749   0.68994   0.69539   0.69920
  Beta virt. eigenvalues --    0.70161   0.70264   0.70640   0.71376   0.72197
  Beta virt. eigenvalues --    0.72302   0.72636   0.72958   0.73851   0.74340
  Beta virt. eigenvalues --    0.74732   0.75273   0.75672   0.76639   0.77222
  Beta virt. eigenvalues --    0.78082   0.78182   0.78818   0.79214   0.79407
  Beta virt. eigenvalues --    0.80057   0.80666   0.80870   0.82202   0.83013
  Beta virt. eigenvalues --    0.83610   0.84002   0.84902   0.85726   0.86788
  Beta virt. eigenvalues --    0.87198   0.87920   0.88179   0.88722   0.89837
  Beta virt. eigenvalues --    0.91054   0.91278   0.91769   0.93106   0.94147
  Beta virt. eigenvalues --    0.94855   0.95648   0.96276   0.98252   0.98941
  Beta virt. eigenvalues --    0.99599   1.00552   1.01824   1.02228   1.02587
  Beta virt. eigenvalues --    1.03825   1.04868   1.05131   1.05716   1.06713
  Beta virt. eigenvalues --    1.06893   1.08352   1.08923   1.09526   1.11205
  Beta virt. eigenvalues --    1.11315   1.12447   1.12848   1.13724   1.13954
  Beta virt. eigenvalues --    1.14722   1.15534   1.16054   1.16384   1.16944
  Beta virt. eigenvalues --    1.17557   1.18654   1.19189   1.20210   1.21406
  Beta virt. eigenvalues --    1.22015   1.22786   1.23516   1.24675   1.25942
  Beta virt. eigenvalues --    1.26790   1.27010   1.28444   1.28538   1.30027
  Beta virt. eigenvalues --    1.30315   1.31302   1.31367   1.32410   1.32611
  Beta virt. eigenvalues --    1.34160   1.34604   1.35241   1.35519   1.35859
  Beta virt. eigenvalues --    1.36430   1.37102   1.38200   1.38530   1.40301
  Beta virt. eigenvalues --    1.40672   1.40828   1.41189   1.41551   1.42093
  Beta virt. eigenvalues --    1.42989   1.43546   1.45468   1.45922   1.46731
  Beta virt. eigenvalues --    1.47134   1.47682   1.48604   1.50032   1.50840
  Beta virt. eigenvalues --    1.51411   1.52629   1.52981   1.54953   1.55154
  Beta virt. eigenvalues --    1.56126   1.57369   1.57709   1.58240   1.60092
  Beta virt. eigenvalues --    1.63119   1.64742   1.65647   1.67074   1.68862
  Beta virt. eigenvalues --    1.69339   1.70942   1.72055   1.72987   1.74272
  Beta virt. eigenvalues --    1.74560   1.76878   1.78838   1.79426   1.80784
  Beta virt. eigenvalues --    1.81019   1.82599   1.83189   1.84302   1.85773
  Beta virt. eigenvalues --    1.86260   1.87950   1.88093   1.88842   1.91828
  Beta virt. eigenvalues --    1.94374   1.96434   1.98988   2.01019   2.02400
  Beta virt. eigenvalues --    2.05660   2.08129   2.11232   2.13587   2.14638
  Beta virt. eigenvalues --    2.19262   2.23111   2.25985   2.29435   2.36172
  Beta virt. eigenvalues --    2.38757   2.39152   2.46004   2.49787   2.51576
  Beta virt. eigenvalues --    2.52795   2.54223   2.56210   2.58491   2.60173
  Beta virt. eigenvalues --    2.61649   2.62764   2.63252   2.64168   2.65394
  Beta virt. eigenvalues --    2.66545   2.70303   2.70794   2.71591   2.72396
  Beta virt. eigenvalues --    2.74141   2.74947   2.76093   2.76834   2.76863
  Beta virt. eigenvalues --    2.77802   2.78253   2.78749   2.79342   2.80274
  Beta virt. eigenvalues --    2.80656   2.81100   2.82504   2.82965   2.83430
  Beta virt. eigenvalues --    2.84233   2.84388   2.85700   2.86221   2.86367
  Beta virt. eigenvalues --    2.86594   2.87055   2.87743   2.88429   2.88642
  Beta virt. eigenvalues --    2.89689   2.89959   2.90434   2.90812   2.92111
  Beta virt. eigenvalues --    2.92818   2.93237   2.93856   2.94535   2.94812
  Beta virt. eigenvalues --    2.96749   2.97287   2.97370   2.98008   2.98791
  Beta virt. eigenvalues --    3.02062   3.02392   3.03779   3.05180   3.06867
  Beta virt. eigenvalues --    3.07050   3.07643   3.09818   3.11045   3.11355
  Beta virt. eigenvalues --    3.12167   3.12453   3.13008   3.14078   3.14692
  Beta virt. eigenvalues --    3.15100   3.15300   3.15876   3.16535   3.17755
  Beta virt. eigenvalues --    3.18034   3.18467   3.19862   3.20368   3.21094
  Beta virt. eigenvalues --    3.21815   3.22531   3.23040   3.24017   3.24677
  Beta virt. eigenvalues --    3.25222   3.26045   3.27108   3.27767   3.28706
  Beta virt. eigenvalues --    3.29414   3.29479   3.30142   3.30646   3.31250
  Beta virt. eigenvalues --    3.32531   3.33725   3.34960   3.35400   3.35570
  Beta virt. eigenvalues --    3.36220   3.37380   3.38459   3.39469   3.39744
  Beta virt. eigenvalues --    3.40709   3.43602   3.43979   3.44971   3.45831
  Beta virt. eigenvalues --    3.46488   3.46775   3.47673   3.48770   3.49626
  Beta virt. eigenvalues --    3.50694   3.51419   3.51456   3.52921   3.53727
  Beta virt. eigenvalues --    3.53928   3.54833   3.55566   3.56879   3.58132
  Beta virt. eigenvalues --    3.59167   3.60087   3.60949   3.61951   3.62823
  Beta virt. eigenvalues --    3.62905   3.63613   3.64140   3.65346   3.68863
  Beta virt. eigenvalues --    3.69981   3.70539   3.71110   3.71782   3.71990
  Beta virt. eigenvalues --    3.72988   3.75057   3.75249   3.76663   3.77632
  Beta virt. eigenvalues --    3.77953   3.78223   3.79678   3.80638   3.80844
  Beta virt. eigenvalues --    3.81505   3.81997   3.83081   3.84398   3.85435
  Beta virt. eigenvalues --    3.87294   3.87774   3.89274   3.91323   3.92326
  Beta virt. eigenvalues --    3.92903   3.93709   3.95930   3.97431   3.97780
  Beta virt. eigenvalues --    3.98469   4.00152   4.00758   4.02820   4.03907
  Beta virt. eigenvalues --    4.05096   4.07660   4.08171   4.08420   4.08716
  Beta virt. eigenvalues --    4.10772   4.10931   4.12061   4.14302   4.14894
  Beta virt. eigenvalues --    4.15374   4.17394   4.17803   4.19627   4.20257
  Beta virt. eigenvalues --    4.22576   4.23845   4.25496   4.26463   4.28346
  Beta virt. eigenvalues --    4.29050   4.29579   4.30518   4.30657   4.31496
  Beta virt. eigenvalues --    4.33137   4.34243   4.34882   4.35165   4.35779
  Beta virt. eigenvalues --    4.37379   4.38452   4.39524   4.39920   4.42120
  Beta virt. eigenvalues --    4.42759   4.42889   4.43599   4.45032   4.45878
  Beta virt. eigenvalues --    4.46967   4.47922   4.48755   4.49435   4.50095
  Beta virt. eigenvalues --    4.51405   4.52161   4.53106   4.54329   4.54784
  Beta virt. eigenvalues --    4.56022   4.57369   4.57804   4.57934   4.58958
  Beta virt. eigenvalues --    4.60204   4.61042   4.63189   4.66588   4.68572
  Beta virt. eigenvalues --    4.70338   4.72640   4.73102   4.74679   4.76188
  Beta virt. eigenvalues --    4.78007   4.81458   4.82843   4.85263   4.86959
  Beta virt. eigenvalues --    4.89360   4.90802   4.91471   4.95583   4.99906
  Beta virt. eigenvalues --    5.00603   5.02192   5.03655   5.04800   5.05206
  Beta virt. eigenvalues --    5.06156   5.08684   5.10344   5.12877   5.14184
  Beta virt. eigenvalues --    5.14966   5.18354   5.18882   5.20663   5.22823
  Beta virt. eigenvalues --    5.23339   5.26633   5.27145   5.33631   5.34510
  Beta virt. eigenvalues --    5.36829   5.39139   5.41018   5.46292   5.46883
  Beta virt. eigenvalues --    5.54138   5.54835   5.55398   5.57956   5.60152
  Beta virt. eigenvalues --    5.61451   5.66508   5.67365   5.71409   5.73737
  Beta virt. eigenvalues --    5.75455   5.81823   5.83717   5.86369   5.91023
  Beta virt. eigenvalues --    5.95621   5.97921   6.01198   6.05192   6.26426
  Beta virt. eigenvalues --    6.41470   6.42738   6.47412   6.64881   6.74915
  Beta virt. eigenvalues --    6.78580   6.87769   6.92580   6.97553   7.03529
  Beta virt. eigenvalues --    7.19348   7.30114   7.43628   7.47825   7.85801
  Beta virt. eigenvalues --    8.15254  23.87902  24.13882  24.36671  24.56176
  Beta virt. eigenvalues --   24.59013  24.65168  24.68091  24.71145  24.79441
  Beta virt. eigenvalues --   24.80437  24.82003  24.91368  25.10871  25.15754
  Beta virt. eigenvalues --   25.32233  49.96788  50.00632
          Condensed to atoms (all electrons):
               1          2          3          4          5          6
     1  C    6.474770   0.188897   0.660425   0.346138  -0.706599   0.020163
     2  C    0.188897   6.444623  -0.367854  -0.032390   1.000722   0.006756
     3  C    0.660425  -0.367854   6.873846  -0.005238   0.537279   0.372358
     4  H    0.346138  -0.032390  -0.005238   0.484193   0.025300  -0.006840
     5  C   -0.706599   1.000722   0.537279   0.025300   8.468660  -0.069825
     6  H    0.020163   0.006756   0.372358  -0.006840  -0.069825   0.485267
     7  C   -0.025371  -0.587464   0.129879   0.033482  -0.128752  -0.010928
     8  H   -0.014488   0.452460   0.000170  -0.006644   0.002136  -0.000114
     9  C    0.863045  -1.005687  -1.137311   0.004634  -1.554433   0.058646
    10  H   -0.012807  -0.016222  -0.045529  -0.000079   0.373112  -0.006608
    11  C   -0.941645   0.289030   0.220434   0.001406   0.545183   0.001313
    12  C   -0.019409  -0.471251  -0.290560   0.002585  -1.166816   0.001968
    13  C   -0.378948   0.264666   0.139515   0.000309   0.772236  -0.000377
    14  H    0.011817   0.047864  -0.000066  -0.000015   0.003187  -0.000003
    15  C    0.161041  -0.301642  -0.419602   0.000860  -1.364433   0.003244
    16  H    0.000111  -0.000946  -0.000594  -0.000001   0.003817   0.000000
    17  C   -0.019762   0.173638  -0.082787   0.000063   0.075425   0.000211
    18  C   -0.103679  -0.032154  -0.117363   0.001537  -0.192920  -0.002762
    19  C   -0.046649  -0.078252   0.189081   0.000127   0.207464  -0.000813
    20  H   -0.000613  -0.000170   0.036262  -0.000001   0.078149   0.000033
    21  C   -0.004282   0.022261  -0.116904   0.000042  -0.482072  -0.000115
    22  H    0.000028   0.000412  -0.002134  -0.000000  -0.007380  -0.000000
    23  H    0.000099  -0.001193   0.000166  -0.000000  -0.000586   0.000000
    24  C   -0.001820   0.000952  -0.003180   0.000001  -0.043934  -0.000005
    25  H   -0.000003  -0.000026  -0.000022   0.000000  -0.000223  -0.000000
    26  H    0.000002  -0.000006   0.000021  -0.000000   0.000067   0.000000
    27  O    0.000003   0.000022   0.000008  -0.000000   0.000183   0.000000
    28  O   -0.000000   0.000005   0.000007   0.000000   0.000107   0.000000
    29  H   -0.000000  -0.000000   0.000000   0.000000   0.000002  -0.000000
    30  H   -0.000004  -0.000047   0.000001  -0.000000  -0.000332  -0.000000
               7          8          9         10         11         12
     1  C   -0.025371  -0.014488   0.863045  -0.012807  -0.941645  -0.019409
     2  C   -0.587464   0.452460  -1.005687  -0.016222   0.289030  -0.471251
     3  C    0.129879   0.000170  -1.137311  -0.045529   0.220434  -0.290560
     4  H    0.033482  -0.006644   0.004634  -0.000079   0.001406   0.002585
     5  C   -0.128752   0.002136  -1.554433   0.373112   0.545183  -1.166816
     6  H   -0.010928  -0.000114   0.058646  -0.006608   0.001313   0.001968
     7  C    8.689710  -0.132402   0.787793   0.005186  -1.294161  -0.009994
     8  H   -0.132402   0.484546  -0.015367   0.000034   0.059357  -0.010354
     9  C    0.787793  -0.015367   8.418559  -0.016424  -1.117104   1.271015
    10  H    0.005186   0.000034  -0.016424   0.473120   0.008254   0.022970
    11  C   -1.294161   0.059357  -1.117104   0.008254   7.755958  -0.017513
    12  C   -0.009994  -0.010354   1.271015   0.022970  -0.017513   6.280765
    13  C   -1.930581   0.032417  -0.190341   0.001077   1.486760  -0.007502
    14  H   -0.050795   0.002100   0.001203   0.000014   0.372909  -0.015643
    15  C    0.957971  -0.005316   0.429168   0.004703  -1.289818   1.076877
    16  H    0.014231  -0.000012  -0.013105  -0.000002  -0.044543   0.012116
    17  C   -0.348537  -0.000322  -0.247400   0.000784   0.010088  -0.009995
    18  C   -0.173405   0.001813  -0.318412   0.027912   0.019128   0.377359
    19  C   -0.323036   0.000220  -0.316908   0.005471   0.270103  -0.671273
    20  H   -0.006428   0.000000  -0.022157   0.000866   0.009660  -0.059086
    21  C   -0.001106  -0.000365  -0.368082   0.002516   0.060648  -0.343740
    22  H    0.005195   0.000000   0.005561   0.000050  -0.001048   0.057648
    23  H    0.005500  -0.000000  -0.013460   0.000000   0.027594   0.004610
    24  C   -0.040736  -0.000004  -0.004592   0.000442  -0.023369  -0.270895
    25  H    0.000565   0.000000   0.002188   0.000000  -0.003096   0.005895
    26  H   -0.000262  -0.000000  -0.000553   0.000000   0.000460  -0.002708
    27  O    0.000079  -0.000000   0.000377   0.000000   0.000426  -0.001779
    28  O   -0.000137  -0.000000  -0.000055  -0.000000   0.000192  -0.001635
    29  H   -0.000004  -0.000000   0.000013  -0.000000  -0.000004  -0.000007
    30  H   -0.000014  -0.000000   0.000976   0.000000  -0.000264  -0.000532
              13         14         15         16         17         18
     1  C   -0.378948   0.011817   0.161041   0.000111  -0.019762  -0.103679
     2  C    0.264666   0.047864  -0.301642  -0.000946   0.173638  -0.032154
     3  C    0.139515  -0.000066  -0.419602  -0.000594  -0.082787  -0.117363
     4  H    0.000309  -0.000015   0.000860  -0.000001   0.000063   0.001537
     5  C    0.772236   0.003187  -1.364433   0.003817   0.075425  -0.192920
     6  H   -0.000377  -0.000003   0.003244   0.000000   0.000211  -0.002762
     7  C   -1.930581  -0.050795   0.957971   0.014231  -0.348537  -0.173405
     8  H    0.032417   0.002100  -0.005316  -0.000012  -0.000322   0.001813
     9  C   -0.190341   0.001203   0.429168  -0.013105  -0.247400  -0.318412
    10  H    0.001077   0.000014   0.004703  -0.000002   0.000784   0.027912
    11  C    1.486760   0.372909  -1.289818  -0.044543   0.010088   0.019128
    12  C   -0.007502  -0.015643   1.076877   0.012116  -0.009995   0.377359
    13  C    7.910881  -0.043569  -1.198191   0.421639  -0.098428  -0.281238
    14  H   -0.043569   0.481870   0.047531  -0.006981  -0.005678   0.002455
    15  C   -1.198191   0.047531   8.767415  -0.096904  -0.167255   0.132648
    16  H    0.421639  -0.006981  -0.096904   0.480303   0.059493   0.004108
    17  C   -0.098428  -0.005678  -0.167255   0.059493   6.867461  -0.178149
    18  C   -0.281238   0.002455   0.132648   0.004108  -0.178149   6.519573
    19  C    0.160888  -0.001254  -0.724093   0.003972  -0.791097   0.859443
    20  H    0.013652  -0.000002  -0.015713   0.000013  -0.014894   0.396845
    21  C   -0.469744   0.001477  -0.218821   0.009985   0.698352  -0.707221
    22  H    0.001485   0.000000  -0.003919  -0.000004   0.021889  -0.040957
    23  H    0.017110  -0.000008  -0.056017   0.002560   0.385526  -0.008768
    24  C   -0.051771   0.000181  -0.167510  -0.002255  -0.174440   0.081249
    25  H   -0.006451  -0.000000   0.042680   0.000015   0.116047  -0.011399
    26  H    0.003332   0.000000  -0.005056  -0.000000  -0.013695   0.024844
    27  O    0.002184   0.000000  -0.011441  -0.000001  -0.045959   0.004935
    28  O    0.000629   0.000000  -0.005856   0.000000  -0.037051   0.002183
    29  H   -0.000014  -0.000000  -0.000006   0.000000   0.000815   0.000069
    30  H    0.002823  -0.000000   0.008074  -0.000004   0.033366  -0.003060
              19         20         21         22         23         24
     1  C   -0.046649  -0.000613  -0.004282   0.000028   0.000099  -0.001820
     2  C   -0.078252  -0.000170   0.022261   0.000412  -0.001193   0.000952
     3  C    0.189081   0.036262  -0.116904  -0.002134   0.000166  -0.003180
     4  H    0.000127  -0.000001   0.000042  -0.000000  -0.000000   0.000001
     5  C    0.207464   0.078149  -0.482072  -0.007380  -0.000586  -0.043934
     6  H   -0.000813   0.000033  -0.000115  -0.000000   0.000000  -0.000005
     7  C   -0.323036  -0.006428  -0.001106   0.005195   0.005500  -0.040736
     8  H    0.000220   0.000000  -0.000365   0.000000  -0.000000  -0.000004
     9  C   -0.316908  -0.022157  -0.368082   0.005561  -0.013460  -0.004592
    10  H    0.005471   0.000866   0.002516   0.000050   0.000000   0.000442
    11  C    0.270103   0.009660   0.060648  -0.001048   0.027594  -0.023369
    12  C   -0.671273  -0.059086  -0.343740   0.057648   0.004610  -0.270895
    13  C    0.160888   0.013652  -0.469744   0.001485   0.017110  -0.051771
    14  H   -0.001254  -0.000002   0.001477   0.000000  -0.000008   0.000181
    15  C   -0.724093  -0.015713  -0.218821  -0.003919  -0.056017  -0.167510
    16  H    0.003972   0.000013   0.009985  -0.000004   0.002560  -0.002255
    17  C   -0.791097  -0.014894   0.698352   0.021889   0.385526  -0.174440
    18  C    0.859443   0.396845  -0.707221  -0.040957  -0.008768   0.081249
    19  C    7.884797  -0.002420  -0.459239   0.301886  -0.001565  -0.022338
    20  H   -0.002420   0.469245  -0.045272  -0.006933   0.000037  -0.001067
    21  C   -0.459239  -0.045272   9.382995   0.031489   0.009852  -0.887768
    22  H    0.301886  -0.006933   0.031489   0.476959  -0.000123   0.003223
    23  H   -0.001565   0.000037   0.009852  -0.000123   0.474607  -0.004583
    24  C   -0.022338  -0.001067  -0.887768   0.003223  -0.004583   7.042079
    25  H   -0.064583   0.000007  -0.197835   0.000261   0.000031   0.487341
    26  H    0.075891  -0.000018  -0.173504   0.000131   0.000315   0.460399
    27  O   -0.009051  -0.000002   0.138757   0.000185  -0.000187  -0.038826
    28  O    0.006672   0.000002   0.038711  -0.000102   0.000049   0.055629
    29  H    0.000548  -0.000000  -0.003067   0.000001  -0.000018  -0.000850
    30  H   -0.008919   0.000011  -0.136195  -0.000594   0.000445   0.206407
              25         26         27         28         29         30
     1  C   -0.000003   0.000002   0.000003  -0.000000  -0.000000  -0.000004
     2  C   -0.000026  -0.000006   0.000022   0.000005  -0.000000  -0.000047
[...]
   A51        2.48520  -0.00003   0.04238  -0.01063   0.03190   2.51710
   A52        4.48034   0.00068  -0.04137   0.00876  -0.03259   4.44775
    D1       -0.00334   0.00002   0.00085  -0.00062   0.00023  -0.00311
    D2       -3.13919  -0.00010  -0.00343   0.00103  -0.00240  -3.14159
    D3        3.14001   0.00005   0.00073  -0.00033   0.00040   3.14041
    D4        0.00417  -0.00007  -0.00355   0.00132  -0.00223   0.00194
    D5        0.00381  -0.00001   0.00010   0.00060   0.00071   0.00452
    D6        3.14110   0.00010   0.00410  -0.00023   0.00388  -3.13821
    D7       -3.13954  -0.00003   0.00023   0.00032   0.00054  -3.13899
    D8       -0.00225   0.00007   0.00422  -0.00051   0.00371   0.00146
    D9       -0.00145  -0.00003  -0.00119  -0.00017  -0.00137  -0.00282
   D10        3.14065  -0.00009  -0.00258  -0.00002  -0.00260   3.13805
   D11        3.13449   0.00010   0.00302  -0.00180   0.00122   3.13571
   D12       -0.00659   0.00003   0.00163  -0.00164  -0.00001  -0.00660
   D13        0.00058  -0.00001  -0.00070   0.00021  -0.00050   0.00009
   D14       -3.13929   0.00004   0.00141   0.00020   0.00161  -3.13768
   D15       -3.13671  -0.00012  -0.00470   0.00104  -0.00366  -3.14037
   D16        0.00660  -0.00007  -0.00258   0.00103  -0.00155   0.00505
   D17       -0.00529   0.00001   0.00034  -0.00098  -0.00064  -0.00592
   D18        3.13115   0.00013   0.00346  -0.00165   0.00181   3.13296
   D19        3.13457  -0.00004  -0.00181  -0.00097  -0.00277   3.13179
   D20       -0.01218   0.00008   0.00131  -0.00164  -0.00033  -0.01252
   D21        0.00568   0.00001   0.00059   0.00096   0.00155   0.00723
   D22       -3.13097  -0.00010  -0.00239   0.00160  -0.00079  -3.13176
   D23       -3.13641   0.00007   0.00197   0.00080   0.00277  -3.13365
   D24        0.01012  -0.00004  -0.00102   0.00145   0.00043   0.01055
   D25        3.13854   0.00009   0.00325  -0.00102   0.00223   3.14077
   D26        0.00112  -0.00002   0.00183  -0.00071   0.00112   0.00225
   D27       -0.00254   0.00003   0.00186  -0.00086   0.00100  -0.00154
   D28       -3.13996  -0.00009   0.00045  -0.00055  -0.00010  -3.14007
   D29        3.13600  -0.00010  -0.00348  -0.00043  -0.00391   3.13209
   D30       -0.01885   0.00001   0.00194  -0.00270  -0.00076  -0.01961
   D31       -0.01079   0.00002  -0.00034  -0.00111  -0.00145  -0.01224
   D32        3.11755   0.00013   0.00508  -0.00338   0.00170   3.11925
   D33       -0.00454   0.00001  -0.00127  -0.00011  -0.00138  -0.00592
   D34        3.14036  -0.00003  -0.00154   0.00060  -0.00094   3.13942
   D35        3.13278   0.00013   0.00018  -0.00042  -0.00025   3.13253
   D36       -0.00551   0.00009  -0.00008   0.00028   0.00020  -0.00532
   D37        0.00399   0.00002   0.00093   0.00017   0.00110   0.00509
   D38        3.12757   0.00014   0.00249  -0.00049   0.00200   3.12957
   D39       -3.12507  -0.00008  -0.00420   0.00232  -0.00188  -3.12695
   D40       -0.00149   0.00003  -0.00264   0.00166  -0.00098  -0.00247
   D41       -3.12357  -0.00022  -0.00636   0.00184  -0.00452  -3.12808
   D42        0.00542  -0.00009  -0.00236  -0.00020  -0.00256   0.00286
   D43        0.00499  -0.00012  -0.00102  -0.00040  -0.00142   0.00357
   D44        3.13398   0.00001   0.00298  -0.00244   0.00054   3.13452
   D45        0.00374  -0.00004  -0.00013   0.00045   0.00032   0.00405
   D46       -3.11975  -0.00015  -0.00169   0.00111  -0.00058  -3.12033
   D47       -3.14108   0.00000   0.00012  -0.00024  -0.00012  -3.14119
   D48        0.01862  -0.00011  -0.00143   0.00042  -0.00101   0.01761
   D49       -0.00452   0.00008   0.00256  -0.00135   0.00121  -0.00330
   D50       -3.11541  -0.00010  -0.00702   0.00196  -0.00506  -3.12047
   D51        3.11896   0.00019   0.00411  -0.00201   0.00210   3.12107
   D52        0.00807   0.00002  -0.00547   0.00130  -0.00417   0.00390
   D53        0.00684  -0.00011   0.00121  -0.00028   0.00093   0.00777
   D54       -3.12524   0.00001   0.01962  -0.00425   0.01536  -3.10988
   D55        3.11729   0.00007   0.01096  -0.00364   0.00732   3.12461
   D56       -0.01479   0.00019   0.02937  -0.00762   0.02175   0.00696
   D57       -0.00267   0.00009   0.00494  -0.00125   0.00368   0.00101
   D58        3.13050   0.00002   0.00398  -0.00277   0.00121   3.13171
   D59       -3.13186  -0.00004   0.00100   0.00075   0.00175  -3.13010
   D60        0.00132  -0.00011   0.00004  -0.00076  -0.00072   0.00060
   D61       -0.00328   0.00002  -0.00496   0.00158  -0.00338  -0.00666
   D62        3.12898  -0.00009  -0.02294   0.00547  -0.01747   3.11151
   D63       -3.13651   0.00010  -0.00399   0.00308  -0.00091  -3.13742
   D64       -0.00426  -0.00002  -0.02197   0.00697  -0.01500  -0.01926
   D65        0.19134   0.00014  -0.13537   0.03873  -0.09665   0.09470
   D66       -1.91036  -0.00012  -0.15040   0.04359  -0.10678  -2.01714
   D67        2.28365  -0.00004  -0.14550   0.04254  -0.10299   2.18066
   D68       -2.94051   0.00027  -0.11656   0.03466  -0.08191  -3.02242
   D69        1.24097   0.00001  -0.13160   0.03952  -0.09204   1.14893
   D70       -0.84821   0.00008  -0.12669   0.03848  -0.08825  -0.93645
   D71        0.29382  -0.00020   0.08252  -0.03022   0.05225   0.34608
   D72        2.35163  -0.00003   0.06336  -0.02602   0.03737   2.38900
   D73       -1.66343   0.00021  -0.02917   0.00289  -0.02625  -1.68968
   D74       -0.71709   0.00007  -0.10372   0.02538  -0.07834  -0.79543
         Item               Value     Threshold  Converged?
 Maximum Force            0.001201     0.002500     YES
 RMS     Force            0.000193     0.001667     YES
 Maximum Displacement     0.194534     0.010000     NO 
 RMS     Displacement     0.042837     0.006667     NO 
 Predicted change in Energy=-1.303548D-05
 GradGradGradGradGradGradGradGradGradGradGradGradGradGradGradGradGradGrad

                          Input orientation:                          
 ---------------------------------------------------------------------
 Center     Atomic      Atomic             Coordinates (Angstroms)
 Number     Number       Type             X           Y           Z
 ---------------------------------------------------------------------
      1          6           0       -2.902485    4.044576    6.297647
      2          6           0       -2.098920    3.220009    5.552103
      3          6           0       -3.267188    5.299748    5.789829
      4          1           0       -3.252691    3.732634    7.271640
      5          6           0       -2.829621    5.703522    4.552069
      6          1           0       -3.897863    5.954693    6.374982
      7          6           0       -1.637917    3.614774    4.281913
      8          1           0       -1.808276    2.248290    5.929343
      9          6           0       -2.008378    4.875357    3.762672
     10          1           0       -3.124479    6.676798    4.190486
     11          6           0       -0.794229    2.746406    3.512105
     12          6           0       -1.533160    5.260423    2.444981
     13          6           0       -0.344908    3.108485    2.294028
     14          1           0       -0.528355    1.786701    3.934931
     15          6           0       -0.702915    4.375455    1.722781
     16          1           0        0.292860    2.449198    1.719716
     17          6           0       -0.247125    4.732643    0.435717
     18          6           0       -1.870885    6.484894    1.833114
     19          6           0       -1.415010    6.807445    0.579309
     20          1           0       -2.508440    7.188767    2.346015
     21          6           0       -0.590755    5.929162   -0.151995
     22          1           0       -1.700176    7.751849    0.133865
     23          1           0        0.372364    4.026875   -0.104882
     24          6           0       -0.141522    6.296771   -1.536594
     25          1           0        0.383938    5.471156   -2.009662
     26          1           0        0.519594    7.164287   -1.517978
     27          8           0       -2.450434    4.073525   -1.861970
     28          8           0       -3.120343    4.070321   -0.743077
     29          1           0       -2.497950    4.401357   -0.064480
     30          1           0       -1.002171    6.545689   -2.157520
 ---------------------------------------------------------------------
                    Distance matrix (angstroms):
                    1          2          3          4          5
     1  C    0.000000
     2  C    1.371665   0.000000
     3  C    1.402264   2.397223   0.000000
     4  H    1.081025   2.133256   2.156808   0.000000
     5  C    2.409244   2.775217   1.373517   3.385182   0.000000
     6  H    2.155297   3.375178   1.081253   2.481490   2.127732
     7  C    2.418067   1.407745   2.787018   3.399979   2.419919
     8  H    2.135318   1.082137   3.385157   2.468071   3.857286
     9  C    2.813489   2.439352   2.423649   3.894482   1.408348
    10  H    3.379054   3.854240   2.115309   4.263573   1.079328
    11  C    3.726827   2.467410   4.221743   4.598999   3.737497
    12  C    4.265721   3.759998   3.767812   5.346734   2.513358
    13  C    4.842151   3.701897   5.055885   5.798395   4.243438
    14  H    4.039422   2.671384   4.825283   4.726764   4.584559
    15  C    5.086943   4.236460   4.895987   6.140392   3.780411
    16  H    5.806282   4.582788   6.112724   6.711333   5.325667
    17  C    6.471985   5.647531   6.173240   7.534141   4.955425
    18  C    5.191475   4.954024   4.360026   6.249952   2.987044
    19  C    6.522685   6.169774   5.731774   7.590707   4.359196
    20  H    5.065235   5.118373   4.000493   6.063048   2.678765
    21  C    7.105888   6.492365   6.547116   8.186635   5.214561
    22  H    7.292574   7.074877   6.360680   8.337400   4.999182
    23  H    7.191476   6.225733   7.043732   8.224395   5.895002
    24  C    8.606430   7.971668   8.027472   9.687061   6.682038
    25  H    9.046938   8.271187   8.613487  10.118799   7.310080
    26  H    9.084449   8.508818   8.439210  10.161878   7.084951
    27  O    8.172181   7.471313   7.792351   9.175110   6.628768
    28  O    7.044141   6.433943   6.649204   8.022919   5.548913
    29  H    6.384951   5.753330   5.972584   7.405098   4.808135
    30  H    9.019790   8.467661   8.357213  10.093918   7.004812
                    6          7          8          9         10
     6  H    0.000000
     7  C    3.868270   0.000000
     8  H    4.278130   2.147167   0.000000
     9  C    3.399895   1.412771   3.411156   0.000000
    10  H    2.427259   3.405028   4.936365   2.161919   0.000000
    11  C    5.302992   1.434740   2.668230   2.463611   4.619334
    12  C    4.638830   2.468492   4.614045   1.452728   2.754124
    13  C    6.113802   2.424848   4.012093   2.836527   4.904633
    14  H    5.888939   2.166421   2.414321   3.429277   5.542402
    15  C    5.860432   2.828785   4.841675   2.472912   4.153278
    16  H    7.177894   3.413403   4.709150   3.918624   5.971223
    17  C    7.077864   4.239947   6.228091   3.767095   5.114410
    18  C    5.001832   3.780010   5.893371   2.516488   2.676851
    19  C    6.362513   4.894089   7.040129   3.770789   3.997493
    20  H    4.436892   4.156794   6.143189   2.758413   2.010892
    21  C    7.317038   5.110037   7.212062   4.294739   5.082898
    22  H    6.856468   5.858803   7.993023   4.640845   4.431766
    23  H    7.996247   4.843039   6.658110   4.620155   6.140048
    24  C    8.764711   6.579310   8.654968   5.795498   6.468531
    25  H    9.427083   6.864253   8.844233   6.276782   7.225261
    26  H    9.125561   7.133907   9.222179   6.286104   6.789953
    27  O    8.572119   6.214332   8.027976   5.698679   6.622959
    28  O    7.404199   5.258862   7.040064   4.710236   5.579765
    29  H    6.770472   4.499944   6.406033   3.887345   4.865686
    30  H    9.029834   7.103571   9.193192   6.233068   6.694666
                   11         12         13         14         15
    11  C    0.000000
    12  C    2.829321   0.000000
    13  C    1.347850   2.462838   0.000000
    14  H    1.081899   3.911053   2.115024   0.000000
    15  C    2.421533   1.412108   1.435168   3.409652   0.000000
    16  H    2.117251   3.429773   1.082239   2.453665   2.168420
    17  C    3.702516   2.443272   2.469974   4.582812   1.411332
    18  C    4.237274   1.409882   3.733790   5.319120   2.413723
    19  C    5.047643   2.426514   4.215174   6.103624   2.780141
    20  H    4.902332   2.163209   4.618688   5.968895   3.400450
    21  C    4.857671   2.842468   3.741616   5.819522   2.437492
    22  H    6.106366   3.402404   5.297536   7.169677   3.862540
    23  H    4.010378   3.413864   2.666963   4.706353   2.148973
    24  C    6.206487   4.343226   4.988006   7.101264   3.824936
    25  H    6.269151   4.854227   4.963384   7.053061   4.038928
    26  H    6.822429   4.852168   5.632787   7.729867   4.446867
    27  O    5.777970   4.560696   4.757821   6.521350   3.999427
    28  O    5.026940   3.754891   4.225183   5.815245   3.466629
    29  H    4.293423   2.822447   3.445238   5.168270   2.533203
    30  H    6.828062   4.808001   5.662389   7.745348   4.456029
                   16         17         18         19         20
    16  H    0.000000
    17  C    2.674763   0.000000
    18  C    4.580556   2.767615   0.000000
    19  C    4.817849   2.385242   1.372547   0.000000
    20  H    5.541033   3.846469   1.079343   2.112403   0.000000
    21  C    4.048978   1.376642   2.426567   1.409108   3.391781
    22  H    5.882620   3.364235   2.126444   1.082423   2.421562
    23  H    2.413409   1.083570   3.850955   3.375559   4.929857
    24  C    5.059255   2.519456   3.792231   2.521826   4.633855
    25  H    4.800915   2.631259   4.569334   3.424129   5.503450
    26  H    5.724171   3.212114   4.172023   2.875525   4.909178
    27  O    4.795057   3.250903   4.450193   3.808709   5.235956
    28  O    4.510359   3.175469   3.745406   3.485501   4.431887
    29  H    3.844853   2.329412   2.887075   2.715968   3.685139
    30  H    5.787167   3.253015   4.084546   2.780141   4.792100
                   21         22         23         24         25
    21  C    0.000000
    22  H    2.152840   0.000000
    23  H    2.132725   4.269410   0.000000
    24  C    1.501353   2.708706   2.732454   0.000000
    25  H    2.147259   3.760292   2.390454   1.086987   0.000000
    26  H    2.150422   2.828637   3.444107   1.090874   1.768289
    27  O    3.134615   4.251625   3.325316   3.221765   3.163677
    28  O    3.194290   4.042221   3.550800   3.802647   3.980774
    29  H    2.445249   3.449867   2.894922   3.363401   3.637786
    30  H    2.138106   2.681879   3.528044   1.090058   1.760052
                   26         27         28         29         30
    26  H    0.000000
    27  O    4.300257   0.000000
    28  O    4.839652   1.304112   0.000000
    29  H    4.341890   1.827758   0.978494   0.000000
    30  H    1.762795   2.880349   3.551725   3.349079   0.000000
 Stoichiometry    C15H13O2(2)
 Framework group  C1[X(C15H13O2)]
 Deg. of freedom    84
 Full point group                 C1      NOp   1
 Largest Abelian subgroup         C1      NOp   1
 Largest concise Abelian subgroup C1      NOp   1
                         Standard orientation:                         
 ---------------------------------------------------------------------
 Center     Atomic      Atomic             Coordinates (Angstroms)
 Number     Number       Type             X           Y           Z
 ---------------------------------------------------------------------
      1          6           0       -4.383356   -0.197506    0.403437
      2          6           0       -3.660252    0.922076    0.079214
      3          6           0       -3.738026   -1.440080    0.480273
      4          1           0       -5.444456   -0.126227    0.597344
      5          6           0       -2.389644   -1.540035    0.238564
      6          1           0       -4.304195   -2.326081    0.732393
      7          6           0       -2.277798    0.841829   -0.174016
      8          1           0       -4.142951    1.888507    0.015704
      9          6           0       -1.621522   -0.406493   -0.090852
     10          1           0       -1.922586   -2.511011    0.301904
     11          6           0       -1.531588    2.018381   -0.516619
     12          6           0       -0.192229   -0.467814   -0.343395
     13          6           0       -0.207432    1.959279   -0.761194
     14          1           0       -2.060799    2.960426   -0.571304
     15          6           0        0.502550    0.714706   -0.679514
     16          1           0        0.348787    2.850530   -1.021067
     17          6           0        1.893754    0.669773   -0.912736
     18          6           0        0.553273   -1.661449   -0.258360
     19          6           0        1.906227   -1.677476   -0.488893
     20          1           0        0.064339   -2.587797    0.002032
     21          6           0        2.609891   -0.502225   -0.819386
     22          1           0        2.451087   -2.609134   -0.406549
     23          1           0        2.405835    1.594898   -1.149466
     24          6           0        4.096064   -0.548579   -1.027236
     25          1           0        4.504506    0.450434   -1.156426
     26          1           0        4.351882   -1.144618   -1.904334
     27          8           0        3.596435    0.805190    1.853293
     28          8           0        2.390983    0.465510    2.216904
     29          1           0        1.906934    0.288305    1.385191
     30          1           0        4.582795   -1.000146   -0.162710
 ---------------------------------------------------------------------
 Rotational constants (GHZ):           0.9652635           0.2844070           0.2662495
 Standard basis: 6-311+G(2df,2p) (5D, 7F)
 There are   780 symmetry adapted cartesian basis functions of A   symmetry.
 There are   695 symmetry adapted basis functions of A   symmetry.
   695 basis functions,  1027 primitive gaussians,   780 cartesian basis functions
    60 alpha electrons       59 beta electrons
       nuclear repulsion energy      1112.1618623779 Hartrees.
 NAtoms=   30 NActive=   30 NUniq=   30 SFac= 1.00D+00 NAtFMM=   60 NAOKFM=F Big=F
 Integral buffers will be    131072 words long.
 Raffenetti 2 integral format.
 Two-electron integral symmetry is turned on.
 One-electron integrals computed using PRISM.
 NBasis=   695 RedAO= T EigKep=  1.71D-06  NBF=   695
 NBsUse=   687 1.00D-06 EigRej=  9.73D-07 NBFU=   687
 Initial guess from the checkpoint file:  "/scratch/dinius.ab/QMscratch/Gau-19244.chk"
 B after Tr=    -0.000000   -0.000000   -0.000000
         Rot=    0.999171    0.040594   -0.001656    0.002404 Ang=   4.67 deg.
 Initial guess <Sx>= 0.0000 <Sy>= 0.0000 <Sz>= 0.5000 <S**2>= 0.7555 S= 0.5027
 ExpMin= 4.38D-02 ExpMax= 8.59D+03 ExpMxC= 1.30D+03 IAcc=2 IRadAn=         4 AccDes= 0.00D+00
 Harris functional with IExCor= 1009 and IRadAn=       4 diagonalized for initial guess.
 HarFok:  IExCor= 1009 AccDes= 0.00D+00 IRadAn=         4 IDoV= 1 UseB2=F ITyADJ=14
 ICtDFT=  3500011 ScaDFX=  1.000000  1.000000  1.000000  1.000000
 FoFCou: FMM=F IPFlag=           8 FMFlag=      100000 FMFlg1=           0
         NFxFlg=           0 DoJE=T BraDBF=F KetDBF=T FulRan=T
         wScrn=  0.000000 ICntrl=       500 IOpCl=  0 I1Cent=   200000004 NGrid=           0
         NMat0=    1 NMatS0=      1 NMatT0=    0 NMatD0=    1 NMtDS0=    0 NMtDT0=    0
 Petite list used in FoFCou.
 Requested convergence on RMS density matrix=1.00D-08 within 128 cycles.
 Requested convergence on MAX density matrix=1.00D-06.
 Requested convergence on             energy=1.00D-06.
 No special actions if energy rises.
