 Entering Gaussian System, Link 0=g16
 Input=rxn906loosebasis.com
 Output=rxn906loosebasis.log
 Initial command:
 /shared/centos7/gaussian/g16/l1.exe "/scratch/dinius.ab/QMscratch/Gau-220300.inp" -scrdir="/scratch/dinius.ab/QMscratch/"
 Default is to use a total of  20 processors:
                               20 via shared-memory
                                1 via Linda
 Entering Link 1 = /shared/centos7/gaussian/g16/l1.exe PID=    220301.
  
 Copyright (c) 1988,1990,1992,1993,1995,1998,2003,2009,2016,
            Gaussian, Inc.  All Rights Reserved.
  
 This is part of the Gaussian(R) 16 program.  It is based on
 the Gaussian(R) 09 system (copyright 2009, Gaussian, Inc.),
 the Gaussian(R) 03 system (copyright 2003, Gaussian, Inc.),
 the Gaussian(R) 98 system (copyright 1998, Gaussian, Inc.),
 the Gaussian(R) 94 system (copyright 1995, Gaussian, Inc.),
 the Gaussian 92(TM) system (copyright 1992, Gaussian, Inc.),
 the Gaussian 90(TM) system (copyright 1990, Gaussian, Inc.),
 the Gaussian 88(TM) system (copyright 1988, Gaussian, Inc.),
 the Gaussian 86(TM) system (copyright 1986, Carnegie Mellon
 University), and the Gaussian 82(TM) system (copyright 1983,
 Carnegie Mellon University). Gaussian is a federally registered
 trademark of Gaussian, Inc.
  
 This software contains proprietary and confidential information,
 including trade secrets, belonging to Gaussian, Inc.
  
 This software is provided under written license and may be
 used, copied, transmitted, or stored only in accord with that
 written license.
  
 The following legend is applicable only to US Government
 contracts under FAR:
  
                    RESTRICTED RIGHTS LEGEND
  
 Use, reproduction and disclosure by the US Government is
 subject to restrictions as set forth in subparagraphs (a)
 and (c) of the Commercial Computer Software - Restricted
 Rights clause in FAR 52.227-19.
  
 Gaussian, Inc.
 340 Quinnipiac St., Bldg. 40, Wallingford CT 06492
  
  
 ---------------------------------------------------------------
 Warning -- This program may not be used in any manner that
 competes with the business of Gaussian, Inc. or will provide
 assistance to any competitor of Gaussian, Inc.  The licensee
 of this program is prohibited from giving any competitor of
 Gaussian, Inc. access to this program.  By using this program,
 the user acknowledges that Gaussian, Inc. is engaged in the
 business of creating and licensing software in the field of
 computational chemistry and represents and warrants to the
 licensee that it is not a competitor of Gaussian, Inc. and that
 it will not use this program in any manner prohibited above.
 ---------------------------------------------------------------
  

 Cite this work as:
 Gaussian 16, Revision A.03,
 M. J. Frisch, G. W. Trucks, H. B. Schlegel, G. E. Scuseria, 
 M. A. Robb, J. R. Cheeseman, G. Scalmani, V. Barone, 
 G. A. Petersson, H. Nakatsuji, X. Li, M. Caricato, A. V. Marenich, 
 J. Bloino, B. G. Janesko, R. Gomperts, B. Mennucci, H. P. Hratchian, 
 J. V. Ortiz, A. F. Izmaylov, J. L. Sonnenberg, D. Williams-Young, 
 F. Ding, F. Lipparini, F. Egidi, J. Goings, B. Peng, A. Petrone, 
 T. Henderson, D. Ranasinghe, V. G. Zakrzewski, J. Gao, N. Rega, 
 G. Zheng, W. Liang, M. Hada, M. Ehara, K. Toyota, R. Fukuda, 
 J. Hasegawa, M. Ishida, T. Nakajima, Y. Honda, O. Kitao, H. Nakai, 
 T. Vreven, K. Throssell, J. A. Montgomery, Jr., J. E. Peralta, 
 F. Ogliaro, M. J. Bearpark, J. J. Heyd, E. N. Brothers, K. N. Kudin, 
 V. N. Staroverov, T. A. Keith, R. Kobayashi, J. Normand, 
 K. Raghavachari, A. P. Rendell, J. C. Burant, S. S. Iyengar, 
 J. Tomasi, M. Cossi, J. M. Millam, M. Klene, C. Adamo, R. Cammi, 
 J. W. Ochterski, R. L. Martin, K. Morokuma, O. Farkas, 
 J. B. Foresman, and D. J. Fox, Gaussian, Inc., Wallingford CT, 2016.
 
 ******************************************
 Gaussian 16:  EM64L-G16RevA.03 25-Dec-2016
                26-Feb-2019 
 ******************************************
 ----------------------------------------------------------------------
 # m062x/6-31G(d,p) Opt=(TS,Loose,maxcycle=1000,CalcFC,NoEigenTest) Int
 (Grid=SG1) freq
 ----------------------------------------------------------------------
 1/5=1,6=1000,7=-1,10=4,11=1,18=20,26=2,38=1/1,3;
 2/9=110,12=2,17=6,18=5,40=1/2;
 3/5=1,6=6,7=101,11=2,25=1,30=1,71=2,74=-55,75=1,140=1/1,2,3;
 4//1;
 5/5=2,38=5/2;
 8/6=4,10=90,11=11/1;
 11/6=1,8=1,9=11,15=111,16=1/1,2,10;
 10/6=1,13=1/2;
 6/7=2,8=2,9=2,10=2,28=1/1;
 7/10=1,18=20,25=1/1,2,3,16;
 1/5=1,6=1000,7=-1,10=4,11=1,18=20,26=2/3(2);
 2/9=110/2;
 99//99;
 2/9=110/2;
 3/5=1,6=6,7=101,11=2,25=1,30=1,71=1,74=-55,75=1/1,2,3;
 4/5=5,16=3,69=1/1;
 5/5=2,38=5/2;
 7//1,2,3,16;
 1/5=1,6=1000,7=-1,11=1,18=20,26=2/3(-5);
 2/9=110/2;
 6/7=2,8=2,9=2,10=2,19=2,28=1/1;
 99/9=1/99;
 -----
 Title
 -----
 Symbolic Z-matrix:
 Charge =  0 Multiplicity = 2
 C                     1.67466   0.61943  -1.16578 
 C                     1.20241   1.88348  -0.82295 
 C                     0.88369  -0.54229  -1.01827 
 H                     2.68013   0.50961  -1.54882 
 C                    -0.07283   2.03856  -0.32769 
 H                     1.84382   2.74475  -0.94946 
 C                    -0.92775   0.91488  -0.16302 
 H                    -0.44709   3.01817  -0.06114 
 C                    -0.46958  -0.38199  -0.50304 
 C                    -1.34407  -1.4683   -0.31623 
 C                    -2.61016  -1.28453   0.18046 
 H                    -1.01962  -2.46884  -0.56158 
 C                    -2.23602   1.07866   0.34468 
 C                    -3.06376   0.00263   0.5152 
 H                    -2.57161   2.07603   0.59928 
 H                    -3.26266  -2.13539   0.31771 
 H                    -4.06131   0.13684   0.90814 
 C                     1.43166  -1.77577  -1.34561 
 H                     2.3479   -1.23324   0.93608 
 H                     2.43643  -1.82471  -1.7399 
 H                     0.89019  -2.70341  -1.26435 
 O                     2.65035  -0.67356   1.66384 
 O                     1.45557  -0.00634   2.03336 
 H                     1.50694   0.81081   1.51993 
 
 Add virtual bond connecting atoms H19        and C3         Dist= 4.80D+00.
 Add virtual bond connecting atoms H19        and C18        Dist= 4.76D+00.
 Add virtual bond connecting atoms H24        and C2         Dist= 4.90D+00.

 GradGradGradGradGradGradGradGradGradGradGradGradGradGradGradGradGradGrad
 Berny optimization.
 Initialization pass.
                           ----------------------------
                           !    Initial Parameters    !
                           ! (Angstroms and Degrees)  !
 --------------------------                            --------------------------
 ! Name  Definition              Value          Derivative Info.                !
 --------------------------------------------------------------------------------
 ! R1    R(1,2)                  1.3923         calculate D2E/DX2 analytically  !
 ! R2    R(1,3)                  1.4131         calculate D2E/DX2 analytically  !
 ! R3    R(1,4)                  1.0815         calculate D2E/DX2 analytically  !
 ! R4    R(2,5)                  1.3768         calculate D2E/DX2 analytically  !
 ! R5    R(2,6)                  1.0813         calculate D2E/DX2 analytically  !
 ! R6    R(2,24)                 2.5947         calculate D2E/DX2 analytically  !
 ! R7    R(3,9)                  1.4569         calculate D2E/DX2 analytically  !
 ! R8    R(3,18)                 1.3888         calculate D2E/DX2 analytically  !
 ! R9    R(3,19)                 2.5379         calculate D2E/DX2 analytically  !
 ! R10   R(5,7)                  1.4215         calculate D2E/DX2 analytically  !
 ! R11   R(5,8)                  1.082          calculate D2E/DX2 analytically  !
 ! R12   R(7,9)                  1.4168         calculate D2E/DX2 analytically  !
 ! R13   R(7,13)                 1.4129         calculate D2E/DX2 analytically  !
 ! R14   R(9,10)                 1.407          calculate D2E/DX2 analytically  !
 ! R15   R(10,11)                1.3724         calculate D2E/DX2 analytically  !
 ! R16   R(10,12)                1.0801         calculate D2E/DX2 analytically  !
 ! R17   R(11,14)                1.4052         calculate D2E/DX2 analytically  !
 ! R18   R(11,16)                1.081          calculate D2E/DX2 analytically  !
 ! R19   R(13,14)                1.3682         calculate D2E/DX2 analytically  !
 ! R20   R(13,15)                1.0827         calculate D2E/DX2 analytically  !
 ! R21   R(14,17)                1.0805         calculate D2E/DX2 analytically  !
 ! R22   R(18,19)                2.5179         calculate D2E/DX2 analytically  !
 ! R23   R(18,20)                1.0805         calculate D2E/DX2 analytically  !
 ! R24   R(18,21)                1.0772         calculate D2E/DX2 analytically  !
 ! R25   R(19,22)                0.9666         calculate D2E/DX2 analytically  !
 ! R26   R(22,23)                1.4175         calculate D2E/DX2 analytically  !
 ! R27   R(23,24)                0.9664         calculate D2E/DX2 analytically  !
 ! A1    A(2,1,3)              122.0608         calculate D2E/DX2 analytically  !
 ! A2    A(2,1,4)              119.6523         calculate D2E/DX2 analytically  !
 ! A3    A(3,1,4)              118.2841         calculate D2E/DX2 analytically  !
 ! A4    A(1,2,5)              120.3328         calculate D2E/DX2 analytically  !
 ! A5    A(1,2,6)              119.548          calculate D2E/DX2 analytically  !
 ! A6    A(1,2,24)              78.8833         calculate D2E/DX2 analytically  !
 ! A7    A(5,2,6)              120.1192         calculate D2E/DX2 analytically  !
 ! A8    A(5,2,24)              80.2393         calculate D2E/DX2 analytically  !
 ! A9    A(6,2,24)             111.4267         calculate D2E/DX2 analytically  !
 ! A10   A(1,3,9)              117.7995         calculate D2E/DX2 analytically  !
 ! A11   A(1,3,18)             118.9912         calculate D2E/DX2 analytically  !
 ! A12   A(1,3,19)              88.9268         calculate D2E/DX2 analytically  !
 ! A13   A(9,3,18)             123.2001         calculate D2E/DX2 analytically  !
 ! A14   A(9,3,19)             107.0694         calculate D2E/DX2 analytically  !
 ! A15   A(2,5,7)              120.6432         calculate D2E/DX2 analytically  !
 ! A16   A(2,5,8)              120.7285         calculate D2E/DX2 analytically  !
 ! A17   A(7,5,8)              118.6274         calculate D2E/DX2 analytically  !
 ! A18   A(5,7,9)              120.0843         calculate D2E/DX2 analytically  !
 ! A19   A(5,7,13)             120.4572         calculate D2E/DX2 analytically  !
 ! A20   A(9,7,13)             119.4579         calculate D2E/DX2 analytically  !
 ! A21   A(3,9,7)              119.0757         calculate D2E/DX2 analytically  !
 ! A22   A(3,9,10)             122.6376         calculate D2E/DX2 analytically  !
 ! A23   A(7,9,10)             118.2844         calculate D2E/DX2 analytically  !
 ! A24   A(9,10,11)            121.2014         calculate D2E/DX2 analytically  !
 ! A25   A(9,10,12)            119.8911         calculate D2E/DX2 analytically  !
 ! A26   A(11,10,12)           118.907          calculate D2E/DX2 analytically  !
 ! A27   A(10,11,14)           120.4422         calculate D2E/DX2 analytically  !
 ! A28   A(10,11,16)           119.8287         calculate D2E/DX2 analytically  !
 ! A29   A(14,11,16)           119.7289         calculate D2E/DX2 analytically  !
 ! A30   A(7,13,14)            120.9177         calculate D2E/DX2 analytically  !
 ! A31   A(7,13,15)            118.575          calculate D2E/DX2 analytically  !
 ! A32   A(14,13,15)           120.5071         calculate D2E/DX2 analytically  !
 ! A33   A(11,14,13)           119.6962         calculate D2E/DX2 analytically  !
 ! A34   A(11,14,17)           119.8954         calculate D2E/DX2 analytically  !
 ! A35   A(13,14,17)           120.4081         calculate D2E/DX2 analytically  !
 ! A36   A(3,18,20)            119.5474         calculate D2E/DX2 analytically  !
 ! A37   A(3,18,21)            123.2798         calculate D2E/DX2 analytically  !
 ! A38   A(19,18,20)            90.1177         calculate D2E/DX2 analytically  !
 ! A39   A(19,18,21)           107.4643         calculate D2E/DX2 analytically  !
 ! A40   A(20,18,21)           117.1278         calculate D2E/DX2 analytically  !
 ! A41   A(3,19,22)            127.0611         calculate D2E/DX2 analytically  !
 ! A42   A(18,19,22)           157.0537         calculate D2E/DX2 analytically  !
 ! A43   A(19,22,23)           101.8341         calculate D2E/DX2 analytically  !
 ! A44   A(22,23,24)           102.3982         calculate D2E/DX2 analytically  !
 ! A45   A(2,24,23)            145.3882         calculate D2E/DX2 analytically  !
 ! D1    D(3,1,2,5)             -0.2903         calculate D2E/DX2 analytically  !
 ! D2    D(3,1,2,6)            179.7952         calculate D2E/DX2 analytically  !
 ! D3    D(3,1,2,24)            71.3397         calculate D2E/DX2 analytically  !
 ! D4    D(4,1,2,5)           -179.6709         calculate D2E/DX2 analytically  !
 ! D5    D(4,1,2,6)              0.4146         calculate D2E/DX2 analytically  !
 ! D6    D(4,1,2,24)          -108.0408         calculate D2E/DX2 analytically  !
 ! D7    D(2,1,3,9)              0.6878         calculate D2E/DX2 analytically  !
 ! D8    D(2,1,3,18)          -178.2431         calculate D2E/DX2 analytically  !
 ! D9    D(2,1,3,19)          -108.0967         calculate D2E/DX2 analytically  !
 ! D10   D(4,1,3,9)           -179.9235         calculate D2E/DX2 analytically  !
 ! D11   D(4,1,3,18)             1.1456         calculate D2E/DX2 analytically  !
 ! D12   D(4,1,3,19)            71.292          calculate D2E/DX2 analytically  !
 ! D13   D(1,2,5,7)             -0.2244         calculate D2E/DX2 analytically  !
 ! D14   D(1,2,5,8)           -179.873          calculate D2E/DX2 analytically  !
 ! D15   D(6,2,5,7)            179.6896         calculate D2E/DX2 analytically  !
 ! D16   D(6,2,5,8)              0.0411         calculate D2E/DX2 analytically  !
 ! D17   D(24,2,5,7)           -71.118          calculate D2E/DX2 analytically  !
 ! D18   D(24,2,5,8)           109.2334         calculate D2E/DX2 analytically  !
 ! D19   D(1,2,24,23)          -34.3525         calculate D2E/DX2 analytically  !
 ! D20   D(5,2,24,23)           89.4298         calculate D2E/DX2 analytically  !
 ! D21   D(6,2,24,23)         -151.9196         calculate D2E/DX2 analytically  !
 ! D22   D(1,3,9,7)             -0.5833         calculate D2E/DX2 analytically  !
 ! D23   D(1,3,9,10)           179.9767         calculate D2E/DX2 analytically  !
 ! D24   D(18,3,9,7)           178.2992         calculate D2E/DX2 analytically  !
 ! D25   D(18,3,9,10)           -1.1408         calculate D2E/DX2 analytically  !
 ! D26   D(19,3,9,7)            97.4495         calculate D2E/DX2 analytically  !
 ! D27   D(19,3,9,10)          -81.9905         calculate D2E/DX2 analytically  !
 ! D28   D(1,3,18,20)           -2.2042         calculate D2E/DX2 analytically  !
 ! D29   D(1,3,18,21)         -179.6953         calculate D2E/DX2 analytically  !
 ! D30   D(9,3,18,20)          178.926          calculate D2E/DX2 analytically  !
 ! D31   D(9,3,18,21)            1.4348         calculate D2E/DX2 analytically  !
 ! D32   D(1,3,19,22)           45.2958         calculate D2E/DX2 analytically  !
 ! D33   D(9,3,19,22)          -73.5336         calculate D2E/DX2 analytically  !
 ! D34   D(2,5,7,9)              0.309          calculate D2E/DX2 analytically  !
 ! D35   D(2,5,7,13)          -179.9551         calculate D2E/DX2 analytically  !
 ! D36   D(8,5,7,9)            179.9648         calculate D2E/DX2 analytically  !
 ! D37   D(8,5,7,13)            -0.2993         calculate D2E/DX2 analytically  !
 ! D38   D(5,7,9,3)              0.1045         calculate D2E/DX2 analytically  !
 ! D39   D(5,7,9,10)           179.5689         calculate D2E/DX2 analytically  !
 ! D40   D(13,7,9,3)          -179.6341         calculate D2E/DX2 analytically  !
 ! D41   D(13,7,9,10)           -0.1696         calculate D2E/DX2 analytically  !
 ! D42   D(5,7,13,14)         -179.5703         calculate D2E/DX2 analytically  !
 ! D43   D(5,7,13,15)            0.2996         calculate D2E/DX2 analytically  !
 ! D44   D(9,7,13,14)            0.1673         calculate D2E/DX2 analytically  !
 ! D45   D(9,7,13,15)         -179.9629         calculate D2E/DX2 analytically  !
 ! D46   D(3,9,10,11)          179.5219         calculate D2E/DX2 analytically  !
 ! D47   D(3,9,10,12)           -0.2091         calculate D2E/DX2 analytically  !
 ! D48   D(7,9,10,11)            0.0777         calculate D2E/DX2 analytically  !
 ! D49   D(7,9,10,12)         -179.6533         calculate D2E/DX2 analytically  !
 ! D50   D(9,10,11,14)           0.0221         calculate D2E/DX2 analytically  !
 ! D51   D(9,10,11,16)        -179.8265         calculate D2E/DX2 analytically  !
 ! D52   D(12,10,11,14)        179.7557         calculate D2E/DX2 analytically  !
 ! D53   D(12,10,11,16)         -0.0929         calculate D2E/DX2 analytically  !
 ! D54   D(10,11,14,13)         -0.0287         calculate D2E/DX2 analytically  !
 ! D55   D(10,11,14,17)       -179.8318         calculate D2E/DX2 analytically  !
 ! D56   D(16,11,14,13)        179.8201         calculate D2E/DX2 analytically  !
 ! D57   D(16,11,14,17)          0.017          calculate D2E/DX2 analytically  !
 ! D58   D(7,13,14,11)          -0.0669         calculate D2E/DX2 analytically  !
 ! D59   D(7,13,14,17)         179.7351         calculate D2E/DX2 analytically  !
 ! D60   D(15,13,14,11)       -179.9342         calculate D2E/DX2 analytically  !
 ! D61   D(15,13,14,17)         -0.1322         calculate D2E/DX2 analytically  !
 ! D62   D(20,18,19,22)         91.1921         calculate D2E/DX2 analytically  !
 ! D63   D(21,18,19,22)       -150.2101         calculate D2E/DX2 analytically  !
 ! D64   D(3,19,22,23)          46.533          calculate D2E/DX2 analytically  !
 ! D65   D(18,19,22,23)         65.5534         calculate D2E/DX2 analytically  !
 ! D66   D(19,22,23,24)        -93.73           calculate D2E/DX2 analytically  !
 ! D67   D(22,23,24,2)          77.6588         calculate D2E/DX2 analytically  !
 --------------------------------------------------------------------------------
 Trust Radius=3.00D-01 FncErr=1.00D-05 GrdErr=1.00D-04 EigMax=2.50D+02 EigMin=1.00D-04
 Number of steps in this run=    144 maximum allowed number of steps=    144.
 Search for a saddle point of order  1.
 GradGradGradGradGradGradGradGradGradGradGradGradGradGradGradGradGradGrad

                          Input orientation:                          
 ---------------------------------------------------------------------
 Center     Atomic      Atomic             Coordinates (Angstroms)
 Number     Number       Type             X           Y           Z
 ---------------------------------------------------------------------
      1          6           0        1.674660    0.619430   -1.165780
      2          6           0        1.202410    1.883480   -0.822950
      3          6           0        0.883690   -0.542290   -1.018270
      4          1           0        2.680130    0.509610   -1.548820
      5          6           0       -0.072830    2.038560   -0.327690
      6          1           0        1.843820    2.744750   -0.949460
      7          6           0       -0.927750    0.914880   -0.163020
      8          1           0       -0.447090    3.018170   -0.061140
      9          6           0       -0.469580   -0.381990   -0.503040
     10          6           0       -1.344070   -1.468300   -0.316230
     11          6           0       -2.610160   -1.284530    0.180460
     12          1           0       -1.019620   -2.468840   -0.561580
     13          6           0       -2.236020    1.078660    0.344680
     14          6           0       -3.063760    0.002630    0.515200
     15          1           0       -2.571610    2.076030    0.599280
     16          1           0       -3.262660   -2.135390    0.317710
     17          1           0       -4.061310    0.136840    0.908140
     18          6           0        1.431660   -1.775770   -1.345610
     19          1           0        2.347900   -1.233240    0.936080
     20          1           0        2.436430   -1.824710   -1.739900
     21          1           0        0.890190   -2.703410   -1.264350
     22          8           0        2.650350   -0.673560    1.663840
     23          8           0        1.455570   -0.006340    2.033360
     24          1           0        1.506940    0.810810    1.519930
 ---------------------------------------------------------------------
                    Distance matrix (angstroms):
                    1          2          3          4          5
     1  C    0.000000
     2  C    1.392255   0.000000
     3  C    1.413148   2.454403   0.000000
     4  H    1.081550   2.144309   2.148296   0.000000
     5  C    2.402092   1.376797   2.837714   3.377519   0.000000
     6  H    2.142987   1.081294   3.425086   2.460589   2.135146
     7  C    2.804524   2.431311   2.477118   3.886063   1.421500
     8  H    3.387625   2.142131   3.919687   4.276163   1.082014
     9  C    2.457607   2.833769   1.456879   3.436463   2.459110
    10  C    3.767371   4.239782   2.512622   4.650332   3.730181
    11  C    4.878228   5.057550   3.767607   5.847779   4.211791
    12  H    4.142658   4.893712   2.746407   4.851181   4.611699
    13  C    4.217321   3.719395   3.770637   5.298839   2.460260
    14  C    5.065448   4.850613   4.269758   6.124498   3.714988
    15  H    4.823684   4.037702   4.627220   5.886321   2.665442
    16  H    5.845246   6.114677   4.638430   6.767327   5.292770
    17  H    6.118447   5.809834   5.350261   7.184889   4.588223
    18  C    2.414202   3.703490   1.388847   2.612075   4.224780
    19  H    2.881571   3.757696   2.537874   3.053298   4.261657
    20  H    2.623686   4.014259   2.139241   2.354772   4.818255
    21  H    3.415608   4.618644   2.175095   3.688944   4.928592
    22  O    3.260451   3.849559   3.214348   3.423735   4.328683
    23  O    3.267122   3.434242   3.150672   3.820702   3.477381
    24  H    2.697739   2.594696   2.943090   3.299140   2.723370
                    6          7          8          9         10
     6  H    0.000000
     7  C    3.412992   0.000000
     8  H    2.472274   2.159917   0.000000
     9  C    3.915050   1.416829   3.428829   0.000000
    10  C    5.321035   2.424117   4.582364   1.407018   0.000000
    11  C    6.111445   2.790320   4.821874   2.421535   1.372391
    12  H    5.960810   3.408350   5.539450   2.158915   1.080067
    13  C    4.593011   1.412853   2.669580   2.443857   2.778378
    14  C    5.809371   2.419653   4.033932   2.813275   2.410860
    15  H    4.726712   2.152126   2.416064   3.416943   3.860996
    16  H    7.176185   3.871312   5.884738   3.398432   2.127881
    17  H    6.717323   3.401754   4.722727   3.893731   3.385107
    18  C    4.556524   3.768943   5.306734   2.503450   2.976380
    19  H    4.431000   4.068455   5.184680   3.276261   3.905659
    20  H    4.675034   4.616233   5.881021   3.472198   4.055372
    21  H    5.539947   4.196410   5.997709   2.795990   2.723297
    22  O    4.377747   4.320111   5.118453   3.809770   4.528541
    23  O    4.076328   3.369413   4.141824   3.206344   3.936481
    24  H    3.154600   2.961565   3.345214   3.069497   4.085839
                   11         12         13         14         15
    11  C    0.000000
    12  H    2.117317   0.000000
    13  C    2.398253   3.858198   0.000000
    14  C    1.405199   3.383213   1.368237   0.000000
    15  H    3.386777   4.940861   1.082677   2.132667   0.000000
    16  H    1.080998   2.432194   3.374142   2.156315   4.277019
    17  H    2.157695   4.266324   2.129835   1.080518   2.464763
    18  C    4.348162   2.665300   4.945374   5.180166   5.886011
    19  H    5.015571   3.887143   5.167878   5.566918   5.938542
    20  H    5.426569   3.707779   5.882756   6.219062   6.765205
    21  H    4.043902   2.048483   5.163935   5.111083   6.188717
    22  O    5.499697   4.652333   5.356031   5.867509   5.996866
    23  O    4.647275   4.350194   4.201988   4.767519   4.755106
    24  H    4.809900   4.633821   3.932265   4.749098   4.368403
                   16         17         18         19         20
    16  H    0.000000
    17  H    2.479814   0.000000
    18  C    4.993255   6.237803   0.000000
    19  H    5.716174   6.554073   2.517925   0.000000
    20  H    6.067117   7.285631   1.080473   2.741996   0.000000
    21  H    4.480148   6.107707   1.077176   3.021293   1.840956
    22  O    6.238005   6.802515   3.428828   0.966619   3.599494
    23  O    5.453256   5.632281   3.814301   1.872314   4.301866
    24  H    5.733630   5.642157   3.861008   2.286096   4.293764
                   21         22         23         24
    21  H    0.000000
    22  O    3.974009   0.000000
    23  O    4.297526   1.417472   0.000000
    24  H    4.525742   1.879215   0.966428   0.000000
 Stoichiometry    C11H11O2(2)
 Framework group  C1[X(C11H11O2)]
 Deg. of freedom    66
 Full point group                 C1      NOp   1
 Largest Abelian subgroup         C1      NOp   1
 Largest concise Abelian subgroup C1      NOp   1
                         Standard orientation:                         
 ---------------------------------------------------------------------
 Center     Atomic      Atomic             Coordinates (Angstroms)
 Number     Number       Type             X           Y           Z
 ---------------------------------------------------------------------
      1          6           0        1.674660    0.619430   -1.165780
      2          6           0        1.202411    1.883480   -0.822950
      3          6           0        0.883690   -0.542290   -1.018270
      4          1           0        2.680130    0.509609   -1.548820
      5          6           0       -0.072829    2.038560   -0.327690
      6          1           0        1.843821    2.744750   -0.949460
      7          6           0       -0.927750    0.914880   -0.163020
      8          1           0       -0.447089    3.018170   -0.061140
      9          6           0       -0.469580   -0.381990   -0.503040
     10          6           0       -1.344070   -1.468299   -0.316230
     11          6           0       -2.610160   -1.284529    0.180460
     12          1           0       -1.019621   -2.468839   -0.561580
     13          6           0       -2.236019    1.078661    0.344680
     14          6           0       -3.063760    0.002631    0.515200
     15          1           0       -2.571609    2.076031    0.599280
     16          1           0       -3.262660   -2.135389    0.317710
     17          1           0       -4.061310    0.136841    0.908140
     18          6           0        1.431660   -1.775770   -1.345610
     19          1           0        2.347900   -1.233240    0.936080
     20          1           0        2.436430   -1.824711   -1.739900
     21          1           0        0.890189   -2.703410   -1.264350
     22          8           0        2.650350   -0.673561    1.663840
     23          8           0        1.455570   -0.006340    2.033360
     24          1           0        1.506940    0.810810    1.519930
 ---------------------------------------------------------------------
 Rotational constants (GHZ):           1.1121557           0.6536505           0.5989428
 Standard basis: 6-31G(d,p) (6D, 7F)
 There are   250 symmetry adapted cartesian basis functions of A   symmetry.
 There are   250 symmetry adapted basis functions of A   symmetry.
   250 basis functions,   441 primitive gaussians,   250 cartesian basis functions
    47 alpha electrons       46 beta electrons
       nuclear repulsion energy       757.6162866570 Hartrees.
 NAtoms=   24 NActive=   24 NUniq=   24 SFac= 1.00D+00 NAtFMM=   60 NAOKFM=F Big=F
 Integral buffers will be    131072 words long.
 Raffenetti 2 integral format.
 Two-electron integral symmetry is turned on.
 One-electron integrals computed using PRISM.
 NBasis=   250 RedAO= T EigKep=  2.65D-04  NBF=   250
 NBsUse=   250 1.00D-06 EigRej= -1.00D+00 NBFU=   250
 ExpMin= 1.61D-01 ExpMax= 5.48D+03 ExpMxC= 8.25D+02 IAcc=1 IRadAn=         1 AccDes= 0.00D+00
 Harris functional with IExCor= 1009 and IRadAn=       1 diagonalized for initial guess.
 HarFok:  IExCor= 1009 AccDes= 0.00D+00 IRadAn=         1 IDoV= 1 UseB2=F ITyADJ=14
 ICtDFT=  3500011 ScaDFX=  1.000000  1.000000  1.000000  1.000000
 FoFCou: FMM=F IPFlag=           0 FMFlag=      100000 FMFlg1=           0
         NFxFlg=           0 DoJE=T BraDBF=F KetDBF=T FulRan=T
         wScrn=  0.000000 ICntrl=       500 IOpCl=  0 I1Cent=   200000004 NGrid=           0
         NMat0=    1 NMatS0=      1 NMatT0=    0 NMatD0=    1 NMtDS0=    0 NMtDT0=    0
 Petite list used in FoFCou.
 Initial guess <Sx>= 0.0000 <Sy>= 0.0000 <Sz>= 0.5000 <S**2>= 0.7500 S= 0.5000
 Requested convergence on RMS density matrix=1.00D-08 within 128 cycles.
 Requested convergence on MAX density matrix=1.00D-06.
 Requested convergence on             energy=1.00D-06.
 No special actions if energy rises.
 SCF Done:  E(UM062X) =  -575.862927683     A.U. after   18 cycles
            NFock= 18  Conv=0.92D-08     -V/T= 2.0082
 <Sx>= 0.0000 <Sy>= 0.0000 <Sz>= 0.5000 <S**2>= 0.7899 S= 0.5197
 <L.S>= 0.000000000000E+00
 Annihilation of the first spin contaminant:
 S**2 before annihilation     0.7899,   after     0.7509
 DoSCS=F DFT=T ScalE2(SS,OS)=  1.000000  1.000000
 Range of M.O.s used for correlation:     1   250
 NBasis=   250 NAE=    47 NBE=    46 NFC=     0 NFV=     0
 NROrb=    250 NOA=    47 NOB=    46 NVA=   203 NVB=   204

 **** Warning!!: The largest beta MO coefficient is  0.10300667D+02

 Symmetrizing basis deriv contribution to polar:
 IMax=3 JMax=2 DiffMx= 0.00D+00
 G2DrvN: will do    25 centers at a time, making    1 passes.
 Calling FoFCou, ICntrl=  3107 FMM=F I1Cent=   0 AccDes= 0.00D+00.
 End of G2Drv F.D. properties file   721 does not exist.
 End of G2Drv F.D. properties file   722 does not exist.
 End of G2Drv F.D. properties file   788 does not exist.
          IDoAtm=111111111111111111111111
          Differentiating once with respect to nuclear coordinates.
 Keep R1 and R2 ints in memory in canonical form, NReq=1005959319.
          There are    75 degrees of freedom in the 1st order CPHF.  IDoFFX=6 NUNeed=     0.
     69 vectors produced by pass  0 Test12= 2.52D-14 1.33D-09 XBig12= 2.07D-01 1.29D-01.
 AX will form    69 AO Fock derivatives at one time.
     69 vectors produced by pass  1 Test12= 2.52D-14 1.33D-09 XBig12= 2.63D-02 4.56D-02.
     69 vectors produced by pass  2 Test12= 2.52D-14 1.33D-09 XBig12= 8.11D-04 5.36D-03.
     69 vectors produced by pass  3 Test12= 2.52D-14 1.33D-09 XBig12= 1.30D-05 7.08D-04.
     69 vectors produced by pass  4 Test12= 2.52D-14 1.33D-09 XBig12= 1.59D-07 4.30D-05.
     69 vectors produced by pass  5 Test12= 2.52D-14 1.33D-09 XBig12= 1.33D-09 3.58D-06.
     69 vectors produced by pass  6 Test12= 2.52D-14 1.33D-09 XBig12= 8.75D-12 3.26D-07.
     31 vectors produced by pass  7 Test12= 2.52D-14 1.33D-09 XBig12= 4.74D-14 1.71D-08.
 InvSVY:  IOpt=1 It=  1 EMax= 1.50D-15
 Solved reduced A of dimension   514 with    75 vectors.
 End of Minotr F.D. properties file   721 does not exist.
 End of Minotr F.D. properties file   722 does not exist.
 End of Minotr F.D. properties file   788 does not exist.

 **********************************************************************

            Population analysis using the SCF density.

 **********************************************************************

 Orbital symmetries:
 Alpha Orbitals:
       Occupied  (A) (A) (A) (A) (A) (A) (A) (A) (A) (A) (A) (A)
                 (A) (A) (A) (A) (A) (A) (A) (A) (A) (A) (A) (A)
                 (A) (A) (A) (A) (A) (A) (A) (A) (A) (A) (A) (A)
                 (A) (A) (A) (A) (A) (A) (A) (A) (A) (A) (A)
       Virtual   (A) (A) (A) (A) (A) (A) (A) (A) (A) (A) (A) (A)
                 (A) (A) (A) (A) (A) (A) (A) (A) (A) (A) (A) (A)
                 (A) (A) (A) (A) (A) (A) (A) (A) (A) (A) (A) (A)
                 (A) (A) (A) (A) (A) (A) (A) (A) (A) (A) (A) (A)
                 (A) (A) (A) (A) (A) (A) (A) (A) (A) (A) (A) (A)
                 (A) (A) (A) (A) (A) (A) (A) (A) (A) (A) (A) (A)
                 (A) (A) (A) (A) (A) (A) (A) (A) (A) (A) (A) (A)
                 (A) (A) (A) (A) (A) (A) (A) (A) (A) (A) (A) (A)
                 (A) (A) (A) (A) (A) (A) (A) (A) (A) (A) (A) (A)
                 (A) (A) (A) (A) (A) (A) (A) (A) (A) (A) (A) (A)
                 (A) (A) (A) (A) (A) (A) (A) (A) (A) (A) (A) (A)
                 (A) (A) (A) (A) (A) (A) (A) (A) (A) (A) (A) (A)
                 (A) (A) (A) (A) (A) (A) (A) (A) (A) (A) (A) (A)
                 (A) (A) (A) (A) (A) (A) (A) (A) (A) (A) (A) (A)
                 (A) (A) (A) (A) (A) (A) (A) (A) (A) (A) (A) (A)
                 (A) (A) (A) (A) (A) (A) (A) (A) (A) (A) (A) (A)
                 (A) (A) (A) (A) (A) (A) (A) (A) (A) (A) (A)
 Beta  Orbitals:
       Occupied  (A) (A) (A) (A) (A) (A) (A) (A) (A) (A) (A) (A)
                 (A) (A) (A) (A) (A) (A) (A) (A) (A) (A) (A) (A)
                 (A) (A) (A) (A) (A) (A) (A) (A) (A) (A) (A) (A)
                 (A) (A) (A) (A) (A) (A) (A) (A) (A) (A)
       Virtual   (A) (A) (A) (A) (A) (A) (A) (A) (A) (A) (A) (A)
                 (A) (A) (A) (A) (A) (A) (A) (A) (A) (A) (A) (A)
                 (A) (A) (A) (A) (A) (A) (A) (A) (A) (A) (A) (A)
                 (A) (A) (A) (A) (A) (A) (A) (A) (A) (A) (A) (A)
                 (A) (A) (A) (A) (A) (A) (A) (A) (A) (A) (A) (A)
                 (A) (A) (A) (A) (A) (A) (A) (A) (A) (A) (A) (A)
                 (A) (A) (A) (A) (A) (A) (A) (A) (A) (A) (A) (A)
                 (A) (A) (A) (A) (A) (A) (A) (A) (A) (A) (A) (A)
                 (A) (A) (A) (A) (A) (A) (A) (A) (A) (A) (A) (A)
                 (A) (A) (A) (A) (A) (A) (A) (A) (A) (A) (A) (A)
                 (A) (A) (A) (A) (A) (A) (A) (A) (A) (A) (A) (A)
                 (A) (A) (A) (A) (A) (A) (A) (A) (A) (A) (A) (A)
                 (A) (A) (A) (A) (A) (A) (A) (A) (A) (A) (A) (A)
                 (A) (A) (A) (A) (A) (A) (A) (A) (A) (A) (A) (A)
                 (A) (A) (A) (A) (A) (A) (A) (A) (A) (A) (A) (A)
                 (A) (A) (A) (A) (A) (A) (A) (A) (A) (A) (A) (A)
                 (A) (A) (A) (A) (A) (A) (A) (A) (A) (A) (A) (A)
 The electronic state is 2-A.
 Alpha  occ. eigenvalues --  -19.67088 -19.67021 -10.57471 -10.57023 -10.56704
 Alpha  occ. eigenvalues --  -10.56697 -10.56644 -10.56630 -10.56300 -10.55838
 Alpha  occ. eigenvalues --  -10.55820 -10.55702 -10.55625  -1.23101  -0.99334
 Alpha  occ. eigenvalues --   -0.97913  -0.93800  -0.90051  -0.84793  -0.83941
 Alpha  occ. eigenvalues --   -0.77771  -0.71391  -0.70519  -0.66372  -0.60107
 Alpha  occ. eigenvalues --   -0.59999  -0.59259  -0.57602  -0.54213  -0.53445
 Alpha  occ. eigenvalues --   -0.51953  -0.50109  -0.49112  -0.48671  -0.47605
 Alpha  occ. eigenvalues --   -0.47334  -0.45953  -0.44470  -0.41132  -0.39839
 Alpha  occ. eigenvalues --   -0.39649  -0.38081  -0.35285  -0.34726  -0.31024
 Alpha  occ. eigenvalues --   -0.30225  -0.22786
 Alpha virt. eigenvalues --   -0.00442   0.01467   0.07438   0.12530   0.13116
 Alpha virt. eigenvalues --    0.13960   0.14236   0.15245   0.16324   0.18652
 Alpha virt. eigenvalues --    0.18989   0.21711   0.21898   0.22546   0.23082
 Alpha virt. eigenvalues --    0.25252   0.27204   0.28894   0.29426   0.33486
 Alpha virt. eigenvalues --    0.34746   0.35299   0.35817   0.39468   0.45067
 Alpha virt. eigenvalues --    0.49739   0.52600   0.54982   0.55390   0.55922
 Alpha virt. eigenvalues --    0.57532   0.58941   0.59920   0.60445   0.62105
 Alpha virt. eigenvalues --    0.62898   0.64028   0.64717   0.65163   0.65605
 Alpha virt. eigenvalues --    0.65856   0.66811   0.67216   0.67709   0.69787
 Alpha virt. eigenvalues --    0.71274   0.71535   0.73595   0.76083   0.80516
 Alpha virt. eigenvalues --    0.84169   0.84530   0.86132   0.86608   0.87286
 Alpha virt. eigenvalues --    0.88384   0.89270   0.90660   0.91146   0.91808
 Alpha virt. eigenvalues --    0.93555   0.94059   0.95224   0.97065   0.98370
 Alpha virt. eigenvalues --    0.98964   1.01176   1.02004   1.03259   1.05015
 Alpha virt. eigenvalues --    1.06577   1.08612   1.09927   1.10619   1.15068
 Alpha virt. eigenvalues --    1.16094   1.16777   1.19290   1.21865   1.24207
 Alpha virt. eigenvalues --    1.25140   1.27696   1.28990   1.30725   1.31645
 Alpha virt. eigenvalues --    1.34069   1.36901   1.39525   1.41000   1.42390
 Alpha virt. eigenvalues --    1.45007   1.45345   1.46434   1.47470   1.48380
 Alpha virt. eigenvalues --    1.49233   1.49602   1.51279   1.52245   1.54493
 Alpha virt. eigenvalues --    1.57117   1.61233   1.63619   1.72203   1.76722
 Alpha virt. eigenvalues --    1.78637   1.80414   1.82266   1.88636   1.89065
 Alpha virt. eigenvalues --    1.90295   1.91049   1.91748   1.93265   1.94455
 Alpha virt. eigenvalues --    1.95349   1.99467   2.00191   2.00909   2.01760
 Alpha virt. eigenvalues --    2.04443   2.05071   2.05429   2.09743   2.12528
 Alpha virt. eigenvalues --    2.12970   2.15987   2.18170   2.20946   2.21764
 Alpha virt. eigenvalues --    2.23176   2.26533   2.28812   2.29113   2.29951
 Alpha virt. eigenvalues --    2.32482   2.33719   2.36796   2.40788   2.40891
 Alpha virt. eigenvalues --    2.41647   2.42589   2.43866   2.45918   2.46236
 Alpha virt. eigenvalues --    2.48021   2.49603   2.50413   2.51658   2.53849
 Alpha virt. eigenvalues --    2.55552   2.56122   2.56530   2.61230   2.61686
 Alpha virt. eigenvalues --    2.62088   2.63811   2.65171   2.66406   2.66979
 Alpha virt. eigenvalues --    2.68477   2.69955   2.74227   2.77305   2.77526
 Alpha virt. eigenvalues --    2.79805   2.80891   2.83173   2.90276   2.92008
 Alpha virt. eigenvalues --    2.94387   2.99614   3.00948   3.05304   3.07733
 Alpha virt. eigenvalues --    3.16342   3.18637   3.23386   3.23824   3.25137
 Alpha virt. eigenvalues --    3.29356   3.36257   3.37222   3.40574   3.48086
 Alpha virt. eigenvalues --    3.52051   3.53108   3.58755   3.63438   3.77687
 Alpha virt. eigenvalues --    3.85405   3.88207   4.15087   4.17175   4.18854
 Alpha virt. eigenvalues --    4.21760   4.27157   4.31359   4.40549   4.43485
 Alpha virt. eigenvalues --    4.54490   4.66951   4.94336
  Beta  occ. eigenvalues --  -19.67081 -19.67005 -10.57628 -10.56931 -10.56717
  Beta  occ. eigenvalues --  -10.56493 -10.56453 -10.56373 -10.56193 -10.55807
  Beta  occ. eigenvalues --  -10.55791 -10.55719 -10.55649  -1.23070  -0.99100
  Beta  occ. eigenvalues --   -0.97874  -0.93524  -0.89485  -0.84592  -0.83567
  Beta  occ. eigenvalues --   -0.76297  -0.71210  -0.70321  -0.65873  -0.59961
  Beta  occ. eigenvalues --   -0.59717  -0.59087  -0.57315  -0.54150  -0.53108
  Beta  occ. eigenvalues --   -0.51634  -0.49816  -0.48836  -0.48420  -0.47289
  Beta  occ. eigenvalues --   -0.46772  -0.45633  -0.44191  -0.40113  -0.39738
  Beta  occ. eigenvalues --   -0.39456  -0.36114  -0.35109  -0.34592  -0.30142
  Beta  occ. eigenvalues --   -0.28488
  Beta virt. eigenvalues --   -0.07084   0.01028   0.02277   0.09029   0.12697
  Beta virt. eigenvalues --    0.13279   0.14358   0.14476   0.15564   0.16650
  Beta virt. eigenvalues --    0.18880   0.19399   0.21797   0.22025   0.22862
  Beta virt. eigenvalues --    0.23166   0.25842   0.27420   0.29091   0.29753
  Beta virt. eigenvalues --    0.33671   0.34933   0.35614   0.35941   0.39667
  Beta virt. eigenvalues --    0.45317   0.49852   0.52986   0.55271   0.55921
  Beta virt. eigenvalues --    0.56284   0.58027   0.59305   0.60494   0.61436
  Beta virt. eigenvalues --    0.62644   0.63822   0.64395   0.65136   0.65788
  Beta virt. eigenvalues --    0.65947   0.66200   0.67056   0.67603   0.68918
  Beta virt. eigenvalues --    0.70438   0.71560   0.72087   0.74326   0.76131
  Beta virt. eigenvalues --    0.80712   0.84216   0.85644   0.86618   0.87163
  Beta virt. eigenvalues --    0.87382   0.88492   0.89543   0.90852   0.91473
  Beta virt. eigenvalues --    0.92450   0.93908   0.94366   0.95734   0.97340
  Beta virt. eigenvalues --    0.98632   0.99557   1.01643   1.02802   1.03877
  Beta virt. eigenvalues --    1.05387   1.06866   1.08877   1.10081   1.10933
  Beta virt. eigenvalues --    1.15222   1.16214   1.17007   1.19432   1.22146
  Beta virt. eigenvalues --    1.24444   1.25671   1.28283   1.29329   1.30988
  Beta virt. eigenvalues --    1.31985   1.34926   1.37852   1.39868   1.41547
  Beta virt. eigenvalues --    1.43030   1.45746   1.45961   1.46651   1.47625
  Beta virt. eigenvalues --    1.48862   1.49563   1.50137   1.52210   1.52976
  Beta virt. eigenvalues --    1.54834   1.57494   1.61482   1.63669   1.72269
  Beta virt. eigenvalues --    1.77314   1.79060   1.80646   1.83157   1.89677
  Beta virt. eigenvalues --    1.90053   1.90759   1.91699   1.92387   1.93619
  Beta virt. eigenvalues --    1.94956   1.95785   2.00161   2.00772   2.02022
  Beta virt. eigenvalues --    2.02753   2.04537   2.05577   2.06367   2.10533
  Beta virt. eigenvalues --    2.12975   2.13102   2.16570   2.18725   2.20977
  Beta virt. eigenvalues --    2.21813   2.23560   2.27270   2.29610   2.29936
  Beta virt. eigenvalues --    2.31362   2.33110   2.34037   2.37485   2.40886
  Beta virt. eigenvalues --    2.41524   2.42031   2.42979   2.44132   2.46558
  Beta virt. eigenvalues --    2.46924   2.48136   2.50734   2.50791   2.52103
  Beta virt. eigenvalues --    2.55460   2.55953   2.56828   2.57599   2.61886
  Beta virt. eigenvalues --    2.62183   2.62557   2.64582   2.65388   2.67135
  Beta virt. eigenvalues --    2.67529   2.69024   2.70478   2.74915   2.77679
  Beta virt. eigenvalues --    2.77893   2.80415   2.81127   2.83770   2.90439
  Beta virt. eigenvalues --    2.92064   2.95611   2.99665   3.01712   3.05854
  Beta virt. eigenvalues --    3.08346   3.17000   3.19097   3.23713   3.24092
  Beta virt. eigenvalues --    3.25575   3.30858   3.37162   3.37886   3.42440
  Beta virt. eigenvalues --    3.48245   3.52046   3.53149   3.61695   3.63472
  Beta virt. eigenvalues --    3.78577   3.85475   3.88597   4.15254   4.17415
  Beta virt. eigenvalues --    4.19116   4.22493   4.28031   4.33572   4.41758
  Beta virt. eigenvalues --    4.43912   4.55440   4.67640   4.94890
          Condensed to atoms (all electrons):
               1          2          3          4          5          6
     1  C    5.019540   0.493249   0.476891   0.377729  -0.042012  -0.031271
     2  C    0.493249   4.894033  -0.018280  -0.034195   0.508209   0.375149
     3  C    0.476891  -0.018280   4.794067  -0.038792  -0.053576   0.002660
     4  H    0.377729  -0.034195  -0.038792   0.566266   0.004109  -0.004518
     5  C   -0.042012   0.508209  -0.053576   0.004109   5.040952  -0.030578
     6  H   -0.031271   0.375149   0.002660  -0.004518  -0.030578   0.556425
     7  C   -0.050213  -0.013216  -0.022875   0.000650   0.450780   0.002147
     8  H    0.004017  -0.036553   0.000695  -0.000172   0.376133  -0.004329
     9  C   -0.012219  -0.042439   0.407454   0.003735  -0.039993   0.001260
    10  C    0.010595  -0.001533  -0.085589  -0.000136   0.013736   0.000017
    11  C   -0.000280   0.000079   0.007741   0.000002  -0.000531  -0.000000
    12  H   -0.000048   0.000018  -0.011791  -0.000010  -0.000182   0.000000
    13  C   -0.000227   0.007539   0.011767   0.000008  -0.080450  -0.000201
    14  C    0.000052  -0.000419  -0.000508  -0.000000   0.008088   0.000003
    15  H    0.000000   0.000354  -0.000161  -0.000000  -0.006967  -0.000009
    16  H    0.000002  -0.000000  -0.000214  -0.000000   0.000011  -0.000000
    17  H   -0.000000   0.000003   0.000015   0.000000  -0.000199  -0.000000
    18  C   -0.091159   0.007750   0.499673  -0.007586  -0.000083  -0.000207
    19  H   -0.002298  -0.000234   0.007250  -0.000018   0.000012   0.000000
    20  H   -0.005520   0.000263  -0.029492   0.005465  -0.000004  -0.000009
    21  H    0.004624  -0.000239  -0.016964   0.000146   0.000020   0.000002
    22  O    0.004024  -0.000556  -0.004319   0.000097   0.000007  -0.000012
    23  O   -0.001948  -0.002600   0.003062   0.000021  -0.001347   0.000009
    24  H    0.002090   0.010951  -0.001558  -0.000019   0.005981   0.000020
               7          8          9         10         11         12
     1  C   -0.050213   0.004017  -0.012219   0.010595  -0.000280  -0.000048
     2  C   -0.013216  -0.036553  -0.042439  -0.001533   0.000079   0.000018
     3  C   -0.022875   0.000695   0.407454  -0.085589   0.007741  -0.011791
     4  H    0.000650  -0.000172   0.003735  -0.000136   0.000002  -0.000010
     5  C    0.450780   0.376133  -0.039993   0.013736  -0.000531  -0.000182
     6  H    0.002147  -0.004329   0.001260   0.000017  -0.000000   0.000000
     7  C    4.753019  -0.038191   0.515475  -0.059282  -0.037931   0.004520
     8  H   -0.038191   0.567514   0.003689  -0.000179   0.000011   0.000002
     9  C    0.515475   0.003689   4.782398   0.502961  -0.015691  -0.032866
    10  C   -0.059282  -0.000179   0.502961   4.976253   0.545985   0.367740
    11  C   -0.037931   0.000011  -0.015691   0.545985   4.838009  -0.037208
    12  H    0.004520   0.000002  -0.032866   0.367740  -0.037208   0.586201
    13  C    0.485785  -0.006384  -0.026944  -0.064079  -0.031767   0.000638
    14  C   -0.021465   0.000288  -0.039348  -0.032761   0.516268   0.004091
    15  H   -0.040617   0.005095   0.003710   0.000617   0.004115   0.000019
    16  H    0.001215  -0.000000   0.002363  -0.030944   0.375079  -0.004999
    17  H    0.002411  -0.000012   0.001187   0.003660  -0.035993  -0.000187
    18  C    0.009723   0.000010  -0.061546  -0.019232   0.000483   0.003994
    19  H   -0.000109  -0.000000  -0.001413  -0.000055   0.000002  -0.000001
    20  H   -0.000143  -0.000000   0.003781   0.000176  -0.000004  -0.000018
    21  H   -0.000315  -0.000000  -0.010369   0.004259   0.000238   0.002176
    22  O    0.000054  -0.000000  -0.000414   0.000025   0.000000  -0.000001
    23  O    0.000548   0.000011   0.002651  -0.000517  -0.000017  -0.000002
    24  H   -0.000427   0.000024  -0.001406   0.000042   0.000012   0.000000
              13         14         15         16         17         18
     1  C   -0.000227   0.000052   0.000000   0.000002  -0.000000  -0.091159
     2  C    0.007539  -0.000419   0.000354  -0.000000   0.000003   0.007750
     3  C    0.011767  -0.000508  -0.000161  -0.000214   0.000015   0.499673
     4  H    0.000008  -0.000000  -0.000000  -0.000000   0.000000  -0.007586
     5  C   -0.080450   0.008088  -0.006967   0.000011  -0.000199  -0.000083
     6  H   -0.000201   0.000003  -0.000009  -0.000000  -0.000000  -0.000207
     7  C    0.485785  -0.021465  -0.040617   0.001215   0.002411   0.009723
     8  H   -0.006384   0.000288   0.005095  -0.000000  -0.000012   0.000010
     9  C   -0.026944  -0.039348   0.003710   0.002363   0.001187  -0.061546
    10  C   -0.064079  -0.032761   0.000617  -0.030944   0.003660  -0.019232
    11  C   -0.031767   0.516268   0.004115   0.375079  -0.035993   0.000483
    12  H    0.000638   0.004091   0.000019  -0.004999  -0.000187   0.003994
    13  C    4.956429   0.541900   0.374714   0.003688  -0.030804  -0.000148
    14  C    0.541900   4.842630  -0.037070  -0.036358   0.374452  -0.000007
    15  H    0.374714  -0.037070   0.577953  -0.000178  -0.004781   0.000002
    16  H    0.003688  -0.036358  -0.000178   0.568562  -0.004359   0.000005
    17  H   -0.030804   0.374452  -0.004781  -0.004359   0.567933  -0.000000
    18  C   -0.000148  -0.000007   0.000002   0.000005  -0.000000   5.222718
    19  H    0.000004   0.000001   0.000000  -0.000000  -0.000000   0.019004
    20  H    0.000002   0.000000  -0.000000  -0.000000  -0.000000   0.381937
    21  H    0.000001  -0.000001   0.000000   0.000003  -0.000000   0.371682
    22  O    0.000001  -0.000000   0.000000   0.000000  -0.000000  -0.003703
    23  O   -0.000154   0.000018  -0.000001  -0.000000   0.000000  -0.000901
    24  H   -0.000142  -0.000007  -0.000001   0.000000   0.000000  -0.000110
              19         20         21         22         23         24
     1  C   -0.002298  -0.005520   0.004624   0.004024  -0.001948   0.002090
     2  C   -0.000234   0.000263  -0.000239  -0.000556  -0.002600   0.010951
     3  C    0.007250  -0.029492  -0.016964  -0.004319   0.003062  -0.001558
     4  H   -0.000018   0.005465   0.000146   0.000097   0.000021  -0.000019
     5  C    0.000012  -0.000004   0.000020   0.000007  -0.001347   0.005981
     6  H    0.000000  -0.000009   0.000002  -0.000012   0.000009   0.000020
     7  C   -0.000109  -0.000143  -0.000315   0.000054   0.000548  -0.000427
     8  H   -0.000000  -0.000000  -0.000000  -0.000000   0.000011   0.000024
     9  C   -0.001413   0.003781  -0.010369  -0.000414   0.002651  -0.001406
    10  C   -0.000055   0.000176   0.004259   0.000025  -0.000517   0.000042
    11  C    0.000002  -0.000004   0.000238   0.000000  -0.000017   0.000012
    12  H   -0.000001  -0.000018   0.002176  -0.000001  -0.000002   0.000000
    13  C    0.000004   0.000002   0.000001   0.000001  -0.000154  -0.000142
    14  C    0.000001   0.000000  -0.000001  -0.000000   0.000018  -0.000007
    15  H    0.000000  -0.000000   0.000000   0.000000  -0.000001  -0.000001
    16  H   -0.000000  -0.000000   0.000003   0.000000  -0.000000   0.000000
    17  H   -0.000000  -0.000000  -0.000000  -0.000000   0.000000   0.000000
    18  C    0.019004   0.381937   0.371682  -0.003703  -0.000901  -0.000110
    19  H    0.398402  -0.000093  -0.000095   0.267064  -0.031301  -0.000526
    20  H   -0.000093   0.540016  -0.032187  -0.000044   0.000007  -0.000003
    21  H   -0.000095  -0.032187   0.541243   0.000021  -0.000007  -0.000002
    22  O    0.267064  -0.000044   0.000021   8.062315   0.070321  -0.029423
    23  O   -0.031301   0.000007  -0.000007   0.070321   8.051109   0.268443
    24  H   -0.000526  -0.000003  -0.000002  -0.029423   0.268443   0.398674
          Atomic-Atomic Spin Densities.
               1          2          3          4          5          6
     1  C    0.391201  -0.003380   0.005817   0.000742  -0.019344  -0.000818
     2  C   -0.003380  -0.149500   0.002754   0.000366   0.004379   0.001059
     3  C    0.005817   0.002754  -0.212015   0.000917  -0.000554  -0.000076
     4  H    0.000742   0.000366   0.000917  -0.017275   0.000072  -0.000051
     5  C   -0.019344   0.004379  -0.000554   0.000072   0.363383  -0.000652
     6  H   -0.000818   0.001059  -0.000076  -0.000051  -0.000652   0.004689
     7  C    0.000910   0.000222   0.002920  -0.000042  -0.010981  -0.000068
     8  H    0.000070   0.000250  -0.000038   0.000007   0.001154   0.000003
     9  C    0.005874  -0.000004   0.009819   0.000087  -0.009321   0.000003
    10  C   -0.000168   0.000021   0.003738   0.000004   0.000098   0.000000
    11  C   -0.000018  -0.000001  -0.000072  -0.000000   0.000125  -0.000000
    12  H    0.000008  -0.000000   0.000034   0.000000  -0.000002   0.000000
    13  C    0.000093   0.000016  -0.000123  -0.000000  -0.007028  -0.000001
    14  C    0.000001   0.000006  -0.000029   0.000000   0.000026   0.000000
    15  H    0.000000  -0.000009   0.000002   0.000000  -0.000170   0.000000
    16  H   -0.000000   0.000000   0.000002   0.000000  -0.000000   0.000000
    17  H   -0.000000   0.000000   0.000000  -0.000000  -0.000002  -0.000000
    18  C   -0.028524   0.000116  -0.024937  -0.000376   0.000431  -0.000003
    19  H   -0.003090   0.000098  -0.002818  -0.000019   0.000140  -0.000001
    20  H   -0.000526  -0.000027   0.000158  -0.000117  -0.000001  -0.000000
    21  H    0.000061   0.000010  -0.000263  -0.000015  -0.000002  -0.000000
    22  O    0.000961  -0.000068   0.001381   0.000002  -0.000024   0.000000
    23  O   -0.000719   0.000378   0.000107  -0.000003   0.000073   0.000001
    24  H    0.000181  -0.001257   0.000313   0.000009   0.000353  -0.000008
               7          8          9         10         11         12
     1  C    0.000910   0.000070   0.005874  -0.000168  -0.000018   0.000008
     2  C    0.000222   0.000250  -0.000004   0.000021  -0.000001  -0.000000
     3  C    0.002920  -0.000038   0.009819   0.003738  -0.000072   0.000034
     4  H   -0.000042   0.000007   0.000087   0.000004  -0.000000   0.000000
     5  C   -0.010981   0.001154  -0.009321   0.000098   0.000125  -0.000002
     6  H   -0.000068   0.000003   0.000003   0.000000  -0.000000   0.000000
     7  C   -0.087360   0.000401   0.004214   0.000535  -0.000301  -0.000062
     8  H    0.000401  -0.016513   0.000076   0.000007  -0.000001  -0.000000
     9  C    0.004214   0.000076   0.139959  -0.004845  -0.004342  -0.000689
    10  C    0.000535   0.000007  -0.004845  -0.062645   0.003813   0.000246
    11  C   -0.000301  -0.000001  -0.004342   0.003813   0.081142  -0.000039
    12  H   -0.000062  -0.000000  -0.000689   0.000246  -0.000039   0.003153
    13  C    0.003324  -0.000263   0.001351   0.000013  -0.002907   0.000006
    14  C    0.002250  -0.000005   0.000166   0.001326  -0.001528  -0.000006
    15  H    0.000373  -0.000080   0.000045   0.000000   0.000017  -0.000000
    16  H   -0.000007  -0.000000   0.000053   0.000152   0.000078  -0.000010
    17  H   -0.000032  -0.000000   0.000005  -0.000015  -0.000176  -0.000001
    18  C   -0.000190   0.000000  -0.013183   0.001030   0.000119  -0.000022
    19  H   -0.000009   0.000000  -0.000655   0.000057   0.000006  -0.000001
    20  H    0.000012  -0.000000   0.000052  -0.000031  -0.000000   0.000010
    21  H    0.000013   0.000000  -0.000073   0.000012  -0.000022   0.000167
    22  O   -0.000003  -0.000000   0.000174  -0.000011  -0.000000  -0.000000
    23  O    0.000012  -0.000001  -0.000649   0.000006   0.000005  -0.000000
    24  H   -0.000137   0.000005  -0.000031  -0.000002   0.000000  -0.000000
              13         14         15         16         17         18
     1  C    0.000093   0.000001   0.000000  -0.000000  -0.000000  -0.028524
     2  C    0.000016   0.000006  -0.000009   0.000000   0.000000   0.000116
     3  C   -0.000123  -0.000029   0.000002   0.000002   0.000000  -0.024937
     4  H   -0.000000   0.000000   0.000000   0.000000  -0.000000  -0.000376
     5  C   -0.007028   0.000026  -0.000170  -0.000000  -0.000002   0.000431
     6  H   -0.000001   0.000000   0.000000   0.000000  -0.000000  -0.000003
     7  C    0.003324   0.002250   0.000373  -0.000007  -0.000032  -0.000190
     8  H   -0.000263  -0.000005  -0.000080  -0.000000  -0.000000   0.000000
     9  C    0.001351   0.000166   0.000045   0.000053   0.000005  -0.013183
    10  C    0.000013   0.001326   0.000000   0.000152  -0.000015   0.001030
    11  C   -0.002907  -0.001528   0.000017   0.000078  -0.000176   0.000119
    12  H    0.000006  -0.000006  -0.000000  -0.000010  -0.000001  -0.000022
    13  C    0.066554   0.000789   0.000005   0.000010  -0.000127  -0.000016
    14  C    0.000789  -0.053413   0.000173   0.000155   0.000117  -0.000001
    15  H    0.000005   0.000173  -0.003151   0.000002  -0.000012   0.000000
    16  H    0.000010   0.000155   0.000002  -0.003939  -0.000002   0.000000
    17  H   -0.000127   0.000117  -0.000012  -0.000002   0.002150  -0.000000
    18  C   -0.000016  -0.000001   0.000000   0.000000  -0.000000   0.758976
    19  H   -0.000003  -0.000000   0.000000  -0.000000   0.000000   0.009856
    20  H   -0.000000  -0.000000  -0.000000   0.000000   0.000000  -0.000947
    21  H    0.000000   0.000000   0.000000  -0.000000  -0.000000  -0.000797
    22  O    0.000000   0.000000   0.000000   0.000000  -0.000000  -0.002588
    23  O   -0.000005  -0.000000   0.000000  -0.000000  -0.000000   0.000290
    24  H   -0.000005   0.000002  -0.000000   0.000000  -0.000000  -0.000008
              19         20         21         22         23         24
     1  C   -0.003090  -0.000526   0.000061   0.000961  -0.000719   0.000181
     2  C    0.000098  -0.000027   0.000010  -0.000068   0.000378  -0.001257
     3  C   -0.002818   0.000158  -0.000263   0.001381   0.000107   0.000313
     4  H   -0.000019  -0.000117  -0.000015   0.000002  -0.000003   0.000009
     5  C    0.000140  -0.000001  -0.000002  -0.000024   0.000073   0.000353
     6  H   -0.000001  -0.000000  -0.000000   0.000000   0.000001  -0.000008
     7  C   -0.000009   0.000012   0.000013  -0.000003   0.000012  -0.000137
     8  H    0.000000  -0.000000   0.000000  -0.000000  -0.000001   0.000005
     9  C   -0.000655   0.000052  -0.000073   0.000174  -0.000649  -0.000031
    10  C    0.000057  -0.000031   0.000012  -0.000011   0.000006  -0.000002
    11  C    0.000006  -0.000000  -0.000022  -0.000000   0.000005   0.000000
    12  H   -0.000001   0.000010   0.000167  -0.000000  -0.000000  -0.000000
    13  C   -0.000003  -0.000000   0.000000   0.000000  -0.000005  -0.000005
    14  C   -0.000000  -0.000000   0.000000   0.000000  -0.000000   0.000002
    15  H    0.000000  -0.000000   0.000000   0.000000   0.000000  -0.000000
    16  H   -0.000000   0.000000  -0.000000   0.000000  -0.000000   0.000000
    17  H    0.000000   0.000000  -0.000000  -0.000000  -0.000000  -0.000000
    18  C    0.009856  -0.000947  -0.000797  -0.002588   0.000290  -0.000008
    19  H   -0.004694   0.000036   0.000003  -0.001033   0.001269   0.000093
    20  H    0.000036  -0.033469   0.001178   0.000001  -0.000000   0.000000
    21  H    0.000003   0.001178  -0.034119   0.000000  -0.000000   0.000000
    22  O   -0.001033   0.000001   0.000000   0.010147  -0.001230  -0.000106
    23  O    0.001269  -0.000000  -0.000000  -0.001230   0.001701   0.000245
    24  H    0.000093   0.000000   0.000000  -0.000106   0.000245  -0.000504
 Mulliken charges and spin densities:
               1          2
     1  C   -0.155618   0.349332
     2  C   -0.147335  -0.144570
     3  C    0.072843  -0.212963
     4  H    0.127218  -0.015692
     5  C   -0.152115   0.322153
     6  H    0.133442   0.004078
     7  C    0.058456  -0.084003
     8  H    0.128331  -0.014929
     9  C    0.053983   0.128088
    10  C   -0.131761  -0.056657
    11  C   -0.128601   0.075896
    12  H    0.117914   0.002793
    13  C   -0.141176   0.061683
    14  C   -0.119847  -0.049971
    15  H    0.123206  -0.002804
    16  H    0.126125  -0.003506
    17  H    0.126674   0.001904
    18  C   -0.332301   0.699226
    19  H    0.344402  -0.000765
    20  H    0.135869  -0.033672
    21  H    0.135766  -0.033847
    22  O   -0.365458   0.007605
    23  O   -0.357406   0.001479
    24  H    0.347387  -0.000859
 Sum of Mulliken charges =  -0.00000   1.00000
 Mulliken charges and spin densities with hydrogens summed into heavy atoms:
               1          2
     1  C   -0.028400   0.333641
     2  C   -0.013893  -0.140491
     3  C    0.072843  -0.212963
     5  C   -0.023784   0.307224
     7  C    0.058456  -0.084003
     9  C    0.053983   0.128088
    10  C   -0.013847  -0.053864
    11  C   -0.002475   0.072390
    13  C   -0.017970   0.058879
    14  C    0.006827  -0.048067
    18  C   -0.060666   0.631707
    22  O   -0.021055   0.006840
    23  O   -0.010018   0.000620
 APT charges:
               1
     1  C   -0.507620
     2  C   -0.549342
     3  C   -0.446673
     4  H    0.602709
     5  C   -0.494819
     6  H    0.680586
     7  C   -0.388523
     8  H    0.583989
     9  C   -0.428651
    10  C   -0.500069
    11  C   -0.450531
    12  H    0.465428
    13  C   -0.500682
    14  C   -0.467955
    15  H    0.577088
    16  H    0.717733
    17  H    0.780542
    18  C   -0.698166
    19  H    0.193553
    20  H    0.617910
    21  H    0.428561
    22  O   -0.338852
    23  O   -0.182201
    24  H    0.305986
 Sum of APT charges =  -0.00000
 APT charges with hydrogens summed into heavy atoms:
               1
     1  C    0.095088
     2  C    0.131244
     3  C   -0.446673
     5  C    0.089171
     7  C   -0.388523
     9  C   -0.428651
    10  C   -0.034641
    11  C    0.267202
    13  C    0.076406
    14  C    0.312586
    18  C    0.348305
    22  O   -0.145299
    23  O    0.123785
 Electronic spatial extent (au):  <R**2>=           2222.5440
 Charge=             -0.0000 electrons
 Dipole moment (field-independent basis, Debye):
    X=             -1.3351    Y=              0.5228    Z=             -2.5811  Tot=              2.9526
 Quadrupole moment (field-independent basis, Debye-Ang):
   XX=            -71.6921   YY=            -64.1675   ZZ=            -85.9851
   XY=              1.3614   XZ=            -10.5199   YZ=              3.6673
 Traceless Quadrupole moment (field-independent basis, Debye-Ang):
   XX=              2.2561   YY=              9.7807   ZZ=            -12.0369
   XY=              1.3614   XZ=            -10.5199   YZ=              3.6673
 Octapole moment (field-independent basis, Debye-Ang**2):
  XXX=             -8.3677  YYY=             -1.4164  ZZZ=              4.0172  XYY=              6.7836
  XXY=             -0.9278  XXZ=             -7.5613  XZZ=             -2.7427  YZZ=              2.5668
  YYZ=              5.1137  XYZ=              2.9403
 Hexadecapole moment (field-independent basis, Debye-Ang**3):
 XXXX=          -1513.1442 YYYY=           -732.0233 ZZZZ=           -591.7188 XXXY=              7.2608
 XXXZ=            -76.6713 YYYX=              0.3536 YYYZ=              6.0570 ZZZX=             -3.0348
 ZZZY=              6.2057 XXYY=           -356.2345 XXZZ=           -383.5090 YYZZ=           -228.5968
 XXYZ=             10.3531 YYXZ=             -0.2570 ZZXY=              4.4134
 N-N= 7.576162866570D+02 E-N=-2.855282350986D+03  KE= 5.711987210270D+02
  Exact polarizability:   0.000   0.000   0.000   0.000   0.000   0.000
 Approx polarizability: 197.860  -2.641 204.778 -46.858  17.088  86.634
                          Isotropic Fermi Contact Couplings
        Atom                 a.u.       MegaHertz       Gauss      10(-4) cm-1
     1  C(13)              0.06159      69.23347      24.70422      23.09380
     2  C(13)             -0.03454     -38.82808     -13.85482     -12.95165
     3  C(13)             -0.05408     -60.79105     -21.69176     -20.27771
     4  H(1)              -0.00528     -23.60637      -8.42334      -7.87424
     5  C(13)              0.05423      60.96793      21.75487      20.33671
     6  H(1)               0.00142       6.35600       2.26798       2.12013
     7  C(13)             -0.02220     -24.96210      -8.90710      -8.32646
     8  H(1)              -0.00499     -22.31816      -7.96368      -7.44454
     9  C(13)              0.02469      27.75986       9.90541       9.25969
    10  C(13)             -0.01329     -14.93837      -5.33038      -4.98290
    11  C(13)              0.01348      15.15681       5.40833       5.05577
    12  H(1)               0.00062       2.76964       0.98827       0.92385
    13  C(13)              0.01174      13.20218       4.71087       4.40377
    14  C(13)             -0.01042     -11.71877      -4.18155      -3.90896
    15  H(1)              -0.00097      -4.32290      -1.54252      -1.44197
    16  H(1)              -0.00114      -5.11405      -1.82482      -1.70586
    17  H(1)               0.00062       2.77098       0.98875       0.92430
    18  C(13)              0.11643     130.88499      46.70302      43.65853
    19  H(1)              -0.00121      -5.40896      -1.93005      -1.80423
    20  H(1)              -0.01024     -45.75100     -16.32509     -15.26089
    21  H(1)              -0.01032     -46.13201     -16.46105     -15.38798
    22  O(17)             -0.00226       1.36965       0.48872       0.45687
    23  O(17)              0.00040      -0.24006      -0.08566      -0.08007
    24  H(1)              -0.00003      -0.12505      -0.04462      -0.04171
 --------------------------------------------------------
       Center         ----  Spin Dipole Couplings  ----
                      3XX-RR        3YY-RR        3ZZ-RR
 --------------------------------------------------------
     1   Atom       -0.102056     -0.151492      0.253548
     2   Atom        0.032443      0.046625     -0.079068
     3   Atom        0.039897      0.080332     -0.120228
     4   Atom        0.019464     -0.017477     -0.001986
     5   Atom       -0.099121     -0.136432      0.235553
     6   Atom        0.001550      0.001831     -0.003381
     7   Atom        0.017769      0.027377     -0.045146
     8   Atom       -0.014372      0.016606     -0.002234
     9   Atom       -0.034039     -0.052286      0.086325
    10   Atom        0.019015      0.017175     -0.036190
    11   Atom       -0.020176     -0.032676      0.052852
    12   Atom        0.007488     -0.004498     -0.002990
    13   Atom       -0.016373     -0.026671      0.043044
    14   Atom        0.013159      0.019986     -0.033145
    15   Atom        0.000078      0.001461     -0.001540
    16   Atom        0.000537      0.000801     -0.001338
    17   Atom       -0.001017      0.002307     -0.001290
    18   Atom       -0.203994     -0.309458      0.513452
    19   Atom       -0.007696     -0.003505      0.011201
    20   Atom        0.040782     -0.042966      0.002184
    21   Atom       -0.016558      0.024612     -0.008054
    22   Atom       -0.009419      0.010546     -0.001127
    23   Atom       -0.009967     -0.003561      0.013528
    24   Atom       -0.002307     -0.001376      0.003684
 --------------------------------------------------------
                        XY            XZ            YZ
 --------------------------------------------------------
     1   Atom       -0.022480      0.152443     -0.054095
     2   Atom       -0.000898     -0.049784      0.019751
     3   Atom       -0.000025     -0.067163      0.024986
     4   Atom       -0.002086     -0.009549     -0.001137
     5   Atom       -0.023418      0.141285     -0.048494
     6   Atom       -0.004046     -0.002919      0.002339
     7   Atom        0.004899     -0.026713      0.009593
     8   Atom       -0.015697      0.002246      0.008409
     9   Atom       -0.009410      0.051587     -0.017054
    10   Atom        0.003993     -0.023334      0.006442
    11   Atom       -0.001861      0.032154     -0.011793
    12   Atom        0.004695     -0.003493     -0.001722
    13   Atom       -0.003771      0.025603     -0.009085
    14   Atom        0.003243     -0.020129      0.006670
    15   Atom       -0.003145     -0.001232      0.001652
    16   Atom        0.005341      0.000095     -0.001775
    17   Atom        0.000755      0.000001      0.000180
    18   Atom       -0.028902      0.306469     -0.094770
    19   Atom        0.002540      0.007333      0.007005
    20   Atom       -0.004928     -0.017414     -0.002335
    21   Atom        0.040512      0.009678     -0.011390
    22   Atom        0.015713      0.011215      0.015255
    23   Atom        0.000291      0.003946      0.008222
    24   Atom       -0.002141      0.001266      0.001200
 --------------------------------------------------------


 ---------------------------------------------------------------------------------
              Anisotropic Spin Dipole Couplings in Principal Axis System
 ---------------------------------------------------------------------------------

       Atom             a.u.   MegaHertz   Gauss  10(-4) cm-1        Axes

              Baa    -0.1609   -21.595    -7.706    -7.203  0.6695  0.7272 -0.1513
     1 C(13)  Bbb    -0.1563   -20.978    -7.485    -6.998 -0.6579  0.6751  0.3338
              Bcc     0.3173    42.573    15.191    14.201  0.3449 -0.1239  0.9304
 
              Baa    -0.1003   -13.460    -4.803    -4.490  0.3478 -0.1228  0.9295
     2 C(13)  Bbb     0.0422     5.667     2.022     1.890  0.6394  0.7562 -0.1393
              Bcc     0.0581     7.793     2.781     2.600  0.6858 -0.6427 -0.3415
 
              Baa    -0.1471   -19.739    -7.043    -6.584  0.3362 -0.1028  0.9362
     3 C(13)  Bbb     0.0610     8.186     2.921     2.731  0.8891  0.3625 -0.2795
              Bcc     0.0861    11.553     4.122     3.854 -0.3106  0.9263  0.2133
 
              Baa    -0.0178    -9.499    -3.389    -3.168  0.0870  0.9885  0.1236
     4 H(1)   Bbb    -0.0054    -2.857    -1.019    -0.953  0.3445 -0.1463  0.9273
              Bcc     0.0232    12.356     4.409     4.121  0.9347 -0.0381 -0.3533
 
              Baa    -0.1535   -20.597    -7.350    -6.870  0.8555  0.4510 -0.2544
     5 C(13)  Bbb    -0.1404   -18.841    -6.723    -6.285 -0.3887  0.8839  0.2601
              Bcc     0.2939    39.438    14.072    13.155  0.3422 -0.1236  0.9315
 
              Baa    -0.0048    -2.552    -0.911    -0.851  0.3577 -0.1092  0.9274
     6 H(1)   Bbb    -0.0023    -1.215    -0.434    -0.405  0.6540  0.7382 -0.1654
              Bcc     0.0071     3.767     1.344     1.257  0.6665 -0.6657 -0.3355
 
              Baa    -0.0563    -7.558    -2.697    -2.521  0.3438 -0.1268  0.9304
     7 C(13)  Bbb     0.0268     3.590     1.281     1.198  0.7648 -0.5371 -0.3558
              Bcc     0.0296     3.968     1.416     1.324  0.5449  0.8339 -0.0877
 
              Baa    -0.0224   -11.958    -4.267    -3.989  0.8726  0.4087 -0.2674
     8 H(1)   Bbb    -0.0025    -1.358    -0.485    -0.453  0.3443 -0.1263  0.9303
              Bcc     0.0250    13.316     4.751     4.442 -0.3464  0.9039  0.2509
 
              Baa    -0.0568    -7.628    -2.722    -2.544  0.6073  0.7845 -0.1254
     9 C(13)  Bbb    -0.0509    -6.828    -2.436    -2.278  0.7149 -0.6085 -0.3444
              Bcc     0.1077    14.456     5.158     4.822  0.3465 -0.1195  0.9304
 
              Baa    -0.0456    -6.120    -2.184    -2.042  0.3437 -0.1175  0.9317
    10 C(13)  Bbb     0.0178     2.391     0.853     0.797 -0.1051  0.9811  0.1625
              Bcc     0.0278     3.730     1.331     1.244  0.9332  0.1538 -0.3248
 
              Baa    -0.0357    -4.797    -1.712    -1.600 -0.5043  0.8130  0.2912
    11 C(13)  Bbb    -0.0306    -4.110    -1.466    -1.371  0.7903  0.5704 -0.2238
              Bcc     0.0664     8.907     3.178     2.971  0.3481 -0.1173  0.9301
 
              Baa    -0.0062    -3.321    -1.185    -1.108 -0.2681  0.9400  0.2109
    12 H(1)   Bbb    -0.0040    -2.142    -0.764    -0.714  0.3315 -0.1155  0.9364
              Bcc     0.0102     5.462     1.949     1.822  0.9046  0.3210 -0.2806
 
              Baa    -0.0279    -3.749    -1.338    -1.251  0.2070  0.9770  0.0504
    13 C(13)  Bbb    -0.0258    -3.464    -1.236    -1.156  0.9150 -0.1752 -0.3633
              Bcc     0.0538     7.213     2.574     2.406  0.3462 -0.1213  0.9303
 
              Baa    -0.0416    -5.577    -1.990    -1.860  0.3490 -0.1191  0.9295
    14 C(13)  Bbb     0.0201     2.694     0.961     0.899  0.6769 -0.6539 -0.3380
              Bcc     0.0215     2.883     1.029     0.962  0.6480  0.7472 -0.1476
 
              Baa    -0.0025    -1.318    -0.470    -0.440  0.6962  0.6676 -0.2637
    15 H(1)   Bbb    -0.0022    -1.175    -0.419    -0.392  0.4058 -0.0630  0.9118
              Bcc     0.0047     2.493     0.890     0.832 -0.5921  0.7418  0.3147
 
              Baa    -0.0051    -2.742    -0.978    -0.915 -0.6486  0.6833  0.3352
    16 H(1)   Bbb    -0.0011    -0.570    -0.204    -0.190  0.3512 -0.1220  0.9283
              Bcc     0.0062     3.312     1.182     1.105  0.6753  0.7198 -0.1608
 
              Baa    -0.0013    -0.698    -0.249    -0.233  0.2610 -0.1024  0.9599
    17 H(1)   Bbb    -0.0012    -0.624    -0.223    -0.208  0.9420 -0.1902 -0.2764
              Bcc     0.0025     1.322     0.472     0.441  0.2109  0.9764  0.0468
 
              Baa    -0.3243   -43.513   -15.527   -14.514 -0.5528  0.7810  0.2906
    18 C(13)  Bbb    -0.3126   -41.950   -14.969   -13.993  0.7591  0.6158 -0.2110
              Bcc     0.6369    85.463    30.495    28.507  0.3437 -0.1040  0.9333
 
              Baa    -0.0102    -5.449    -1.944    -1.817  0.9486 -0.0302 -0.3150
    19 H(1)   Bbb    -0.0063    -3.349    -1.195    -1.117 -0.0833  0.9366 -0.3404
              Bcc     0.0165     8.798     3.139     2.935  0.3053  0.3492  0.8859
 
              Baa    -0.0435   -23.221    -8.286    -7.746  0.0745  0.9941  0.0792
    20 H(1)   Bbb    -0.0041    -2.194    -0.783    -0.732  0.3502 -0.1004  0.9313
              Bcc     0.0476    25.415     9.069     8.477  0.9337 -0.0416 -0.3556
 
              Baa    -0.0467   -24.901    -8.885    -8.306  0.7905 -0.5047 -0.3470
    21 H(1)   Bbb    -0.0032    -1.699    -0.606    -0.567  0.3390 -0.1113  0.9342
              Bcc     0.0499    26.601     9.492     8.873  0.5101  0.8561 -0.0831
 
              Baa    -0.0188     1.360     0.485     0.453  0.8991 -0.3353 -0.2813
    22 O(17)  Bbb    -0.0116     0.840     0.300     0.280  0.0360 -0.5839  0.8110
              Bcc     0.0304    -2.200    -0.785    -0.734  0.4362  0.7393  0.5129
 
              Baa    -0.0108     0.785     0.280     0.262  0.9489  0.2187 -0.2274
    23 O(17)  Bbb    -0.0065     0.472     0.168     0.157 -0.2843  0.9054 -0.3154
              Bcc     0.0174    -1.256    -0.448    -0.419  0.1369  0.3640  0.9213
 
              Baa    -0.0044    -2.351    -0.839    -0.784  0.7573  0.6183 -0.2102
    24 H(1)   Bbb     0.0003     0.184     0.066     0.061 -0.6378  0.7694 -0.0347
              Bcc     0.0041     2.167     0.773     0.723  0.1403  0.1603  0.9771
 

 ---------------------------------------------------------------------------------

 Calling FoFJK, ICntrl=    100147 FMM=F ISym2X=0 I1Cent= 0 IOpClX= 1 NMat=1 NMatS=1 NMatT=0.
 ***** Axes restored to original set *****
 -------------------------------------------------------------------
 Center     Atomic                   Forces (Hartrees/Bohr)
 Number     Number              X              Y              Z
 -------------------------------------------------------------------
      1        6           0.001749195   -0.000959611    0.000019924
      2        6           0.001352879    0.001601331   -0.000163903
      3        6          -0.001050558    0.000631591    0.000356851
      4        1           0.002325332   -0.000215901   -0.000876505
      5        6          -0.001467026    0.000979337    0.000761873
      6        1           0.001541173    0.002012728   -0.000331249
      7        6          -0.000044550    0.000964099    0.000276817
      8        1          -0.000882302    0.002264237    0.000595048
      9        6           0.001192368   -0.000710441   -0.000141225
     10        6           0.001167271   -0.001063628   -0.000636870
     11        6          -0.001883301   -0.000842846    0.000565566
     12        1           0.000772297   -0.002538699   -0.000604970
     13        6           0.000346359    0.001954765    0.000127439
     14        6          -0.002016243   -0.000798706    0.000602367
     15        1          -0.000674717    0.002397340    0.000518285
     16        1          -0.001537188   -0.002063885    0.000289569
     17        1          -0.002365278    0.000260418    0.000950231
     18        6           0.001048777   -0.001602401    0.000266728
     19        1          -0.003015329   -0.002561267   -0.002837296
     20        1           0.002085643   -0.000321806   -0.001053328
     21        1          -0.000995347   -0.002317845    0.000061608
     22        8           0.005640286    0.002507344    0.001215441
     23        8          -0.004849266   -0.003219326    0.002148226
     24        1           0.001559525    0.003643171   -0.002110627
 -------------------------------------------------------------------
 Cartesian Forces:  Max     0.005640286 RMS     0.001735847
 FormGI is forming the generalized inverse of G from B-inverse, IUseBI=4.

 GradGradGradGradGradGradGradGradGradGradGradGradGradGradGradGradGradGrad
 Berny optimization.
 Internal  Forces:  Max     0.005137598 RMS     0.001530826
 Search for a saddle point.
 Step number   1 out of a maximum of  144
 All quantities printed in internal units (Hartrees-Bohrs-Radians)
 Swapping is turned off.
 Second derivative matrix not updated -- analytic derivatives used.
 ITU=  0
     Eigenvalues ---    0.00015   0.00128   0.00212   0.00329   0.00400
     Eigenvalues ---    0.00493   0.00818   0.00997   0.01218   0.01278
     Eigenvalues ---    0.01486   0.01506   0.01656   0.01784   0.01857
     Eigenvalues ---    0.01879   0.02030   0.02118   0.02216   0.02346
     Eigenvalues ---    0.02465   0.02532   0.02761   0.02801   0.05954
     Eigenvalues ---    0.07723   0.08058   0.09123   0.11127   0.11657
     Eigenvalues ---    0.11902   0.12098   0.12342   0.12581   0.12737
     Eigenvalues ---    0.14832   0.15783   0.16003   0.18866   0.19357
     Eigenvalues ---    0.19909   0.20916   0.25644   0.27275   0.29948
     Eigenvalues ---    0.35159   0.36253   0.36604   0.36878   0.37001
     Eigenvalues ---    0.37282   0.37316   0.37622   0.37820   0.37887
     Eigenvalues ---    0.38906   0.40635   0.42494   0.44390   0.45781
     Eigenvalues ---    0.48374   0.50297   0.50783   0.51693   0.52976
     Eigenvalues ---    0.54208
 Eigenvectors required to have negative eigenvalues:
                          D65       D62       D63       D33       D32
   1                    0.50589  -0.49528  -0.49066  -0.26963  -0.25877
                          D64       A42       D67       A45       R6
   1                    0.22502  -0.12549  -0.11953   0.11874  -0.07424
 RFO step:  Lambda0=2.026815929D-04 Lambda=-1.15292726D-03.
 Linear search not attempted -- option 19 set.
 Iteration  1 RMS(Cart)=  0.02860101 RMS(Int)=  0.00147842
 Iteration  2 RMS(Cart)=  0.00127444 RMS(Int)=  0.00060110
 Iteration  3 RMS(Cart)=  0.00000516 RMS(Int)=  0.00060108
 Iteration  4 RMS(Cart)=  0.00000001 RMS(Int)=  0.00060108
 Variable       Old X    -DE/DX   Delta X   Delta X   Delta X     New X
                                 (Linear)    (Quad)   (Total)
    R1        2.63098   0.00442   0.00000   0.00856   0.00872   2.63970
    R2        2.67046   0.00385   0.00000   0.00786   0.00769   2.67815
    R3        2.04383   0.00249   0.00000   0.00650   0.00650   2.05034
    R4        2.60177   0.00474   0.00000   0.00879   0.00872   2.61048
    R5        2.04335   0.00256   0.00000   0.00667   0.00667   2.05002
    R6        4.90326  -0.00070   0.00000  -0.07785  -0.07727   4.82600
    R7        2.75310   0.00338   0.00000   0.00658   0.00665   2.75975
    R8        2.62454   0.00449   0.00000   0.00820   0.00885   2.63339
    R9        4.79589  -0.00074   0.00000  -0.09203  -0.09304   4.70285
   R10        2.68624   0.00347   0.00000   0.00709   0.00686   2.69310
   R11        2.04471   0.00250   0.00000   0.00686   0.00686   2.05158
   R12        2.67742   0.00457   0.00000   0.00883   0.00867   2.68609
   R13        2.66991   0.00378   0.00000   0.00664   0.00664   2.67654
   R14        2.65888   0.00410   0.00000   0.00665   0.00667   2.66555
   R15        2.59344   0.00495   0.00000   0.00934   0.00934   2.60279
   R16        2.04103   0.00272   0.00000   0.00752   0.00752   2.04855
   R17        2.65544   0.00374   0.00000   0.00668   0.00667   2.66211
   R18        2.04279   0.00259   0.00000   0.00662   0.00662   2.04941
   R19        2.58559   0.00514   0.00000   0.00933   0.00932   2.59491
   R20        2.04596   0.00254   0.00000   0.00702   0.00702   2.05298
   R21        2.04188   0.00256   0.00000   0.00654   0.00654   2.04842
   R22        4.75819  -0.00015   0.00000  -0.06555  -0.06524   4.69295
   R23        2.04180   0.00234   0.00000   0.00646   0.00646   2.04826
   R24        2.03557   0.00250   0.00000   0.00666   0.00666   2.04223
[...]
   R17        2.66232   0.00003   0.00000   0.00017   0.00016   2.66248
   R18        2.04916  -0.00000   0.00000  -0.00005  -0.00005   2.04911
   R19        2.59462   0.00005   0.00000   0.00000  -0.00000   2.59462
   R20        2.05234  -0.00005   0.00000  -0.00056  -0.00056   2.05178
   R21        2.04875  -0.00003   0.00000  -0.00011  -0.00011   2.04864
   R22        4.72941  -0.00009   0.00000  -0.01177  -0.01174   4.71768
   R23        2.04796   0.00002   0.00000   0.00012   0.00012   2.04808
   R24        2.04330   0.00012   0.00000   0.00049   0.00049   2.04379
   R25        1.83460   0.00051   0.00000   0.00167   0.00134   1.83594
   R26        2.69099  -0.00005   0.00000   0.00004   0.00010   2.69110
   R27        1.83360  -0.00012   0.00000  -0.00011  -0.00003   1.83357
    A1        2.13017   0.00000   0.00000  -0.00006  -0.00017   2.13000
    A2        2.08643   0.00001   0.00000   0.00011   0.00015   2.08658
    A3        2.06641  -0.00001   0.00000   0.00002   0.00008   2.06649
    A4        2.10038  -0.00003   0.00000  -0.00026  -0.00027   2.10011
    A5        2.08479   0.00000   0.00000  -0.00039  -0.00026   2.08453
    A6        1.39637  -0.00001   0.00000  -0.01726  -0.01778   1.37858
    A7        2.09801   0.00003   0.00000   0.00066   0.00053   2.09854
    A8        1.36712   0.00006   0.00000   0.00704   0.00803   1.37515
    A9        1.95739  -0.00005   0.00000   0.01136   0.01087   1.96827
   A10        2.05609   0.00005   0.00000   0.00051   0.00047   2.05656
   A11        2.07453   0.00020   0.00000   0.00103   0.00027   2.07480
   A12        1.48981   0.00001   0.00000   0.00032   0.00076   1.49057
   A13        2.15216  -0.00024   0.00000  -0.00150  -0.00069   2.15147
   A14        1.92319   0.00000   0.00000   0.00679   0.00600   1.92919
   A15        2.10514  -0.00002   0.00000   0.00028   0.00033   2.10547
   A16        2.10712   0.00001   0.00000  -0.00022  -0.00025   2.10687
   A17        2.07087   0.00001   0.00000  -0.00004  -0.00007   2.07080
   A18        2.09546  -0.00002   0.00000  -0.00014  -0.00015   2.09531
   A19        2.10263   0.00007   0.00000   0.00021   0.00020   2.10284
   A20        2.08510  -0.00005   0.00000  -0.00007  -0.00006   2.08504
   A21        2.07895   0.00003   0.00000  -0.00013  -0.00008   2.07887
   A22        2.13993  -0.00013   0.00000  -0.00011  -0.00015   2.13978
   A23        2.06430   0.00010   0.00000   0.00024   0.00023   2.06453
   A24        2.11540  -0.00003   0.00000  -0.00010  -0.00009   2.11531
   A25        2.09173  -0.00004   0.00000  -0.00037  -0.00038   2.09135
   A26        2.07605   0.00007   0.00000   0.00047   0.00046   2.07651
   A27        2.10228  -0.00004   0.00000  -0.00009  -0.00010   2.10219
   A28        2.09100   0.00003   0.00000   0.00050   0.00050   2.09150
   A29        2.08990   0.00000   0.00000  -0.00041  -0.00040   2.08950
   A30        2.11037  -0.00001   0.00000  -0.00014  -0.00014   2.11022
   A31        2.06853   0.00001   0.00000   0.00022   0.00022   2.06874
   A32        2.10429   0.00000   0.00000  -0.00007  -0.00007   2.10422
   A33        2.08892   0.00002   0.00000   0.00017   0.00016   2.08908
   A34        2.09222  -0.00003   0.00000  -0.00047  -0.00046   2.09176
   A35        2.10204   0.00001   0.00000   0.00030   0.00030   2.10234
   A36        2.08714  -0.00006   0.00000  -0.00024  -0.00040   2.08675
   A37        2.15287   0.00000   0.00000  -0.00082  -0.00067   2.15220
   A38        1.53167  -0.00003   0.00000  -0.00570  -0.00501   1.52666
   A39        1.92535   0.00004   0.00000   0.00615   0.00568   1.93103
   A40        2.04223   0.00005   0.00000   0.00081   0.00081   2.04303
   A41        2.16422  -0.00003   0.00000  -0.03689  -0.03680   2.12742
   A42        2.70378  -0.00006   0.00000  -0.04569  -0.04664   2.65714
   A43        1.75932  -0.00012   0.00000  -0.00462  -0.00640   1.75293
   A44        1.77352  -0.00000   0.00000  -0.00231  -0.00429   1.76923
   A45        2.50497   0.00004   0.00000   0.04503   0.04424   2.54921
    D1       -0.00888   0.00003   0.00000   0.00238   0.00245  -0.00643
    D2        3.13167   0.00004   0.00000   0.00304   0.00316   3.13483
    D3        1.21379   0.00011   0.00000  -0.00073   0.00016   1.21395
    D4       -3.12996  -0.00002   0.00000  -0.00167  -0.00165  -3.13161
    D5        0.01059  -0.00000   0.00000  -0.00101  -0.00094   0.00965
    D6       -1.90729   0.00007   0.00000  -0.00478  -0.00394  -1.91123
    D7        0.01989  -0.00005   0.00000  -0.01060  -0.01053   0.00936
    D8       -3.09217  -0.00006   0.00000  -0.01244  -0.01243  -3.10460
    D9       -1.90707  -0.00006   0.00000  -0.01853  -0.01781  -1.92488
   D10        3.14119  -0.00000   0.00000  -0.00659  -0.00648   3.13472
   D11        0.02913  -0.00002   0.00000  -0.00843  -0.00838   0.02076
   D12        1.21423  -0.00002   0.00000  -0.01452  -0.01375   1.20048
   D13       -0.00634   0.00001   0.00000   0.00447   0.00433  -0.00200
   D14       -3.13603   0.00001   0.00000   0.00322   0.00321  -3.13282
   D15        3.13630  -0.00001   0.00000   0.00380   0.00362   3.13992
   D16        0.00661  -0.00000   0.00000   0.00255   0.00250   0.00911
   D17       -1.24481  -0.00004   0.00000   0.02077   0.02059  -1.22423
   D18        1.90868  -0.00003   0.00000   0.01951   0.01946   1.92814
   D19       -0.35350  -0.00008   0.00000   0.07663   0.07667  -0.27683
   D20        1.81190  -0.00014   0.00000   0.08022   0.08007   1.89197
   D21       -2.41051  -0.00008   0.00000   0.08321   0.08345  -2.32706
   D22       -0.01607   0.00004   0.00000   0.01210   0.01196  -0.00411
   D23        3.12642   0.00004   0.00000   0.01430   0.01424   3.14066
   D24        3.09458   0.00006   0.00000   0.01408   0.01397   3.10855
   D25       -0.04613   0.00006   0.00000   0.01628   0.01625  -0.02988
   D26        1.65137   0.00007   0.00000   0.01653   0.01648   1.66785
   D27       -1.48933   0.00007   0.00000   0.01874   0.01876  -1.47057
   D28       -0.06186  -0.00004   0.00000   0.00060   0.00092  -0.06094
   D29        3.12791   0.00000   0.00000   0.00683   0.00705   3.13496
   D30        3.11100  -0.00006   0.00000  -0.00139  -0.00112   3.10988
   D31        0.01758  -0.00002   0.00000   0.00484   0.00501   0.02259
   D32        0.80534  -0.00018   0.00000  -0.05190  -0.05287   0.75247
   D33       -1.25339  -0.00024   0.00000  -0.05327  -0.05429  -1.30768
   D34        0.00961  -0.00002   0.00000  -0.00260  -0.00254   0.00707
   D35       -3.13193  -0.00001   0.00000  -0.00530  -0.00521  -3.13714
   D36        3.13954  -0.00002   0.00000  -0.00137  -0.00144   3.13810
   D37       -0.00199  -0.00001   0.00000  -0.00407  -0.00411  -0.00611
   D38        0.00188  -0.00000   0.00000  -0.00580  -0.00572  -0.00385
   D39       -3.14057  -0.00000   0.00000  -0.00791  -0.00790   3.13471
   D40       -3.13977  -0.00001   0.00000  -0.00313  -0.00308   3.14034
   D41        0.00097  -0.00001   0.00000  -0.00524  -0.00525  -0.00429
   D42        3.14139   0.00001   0.00000   0.00573   0.00572  -3.13608
   D43        0.00235  -0.00000   0.00000   0.00498   0.00497   0.00732
   D44       -0.00014   0.00002   0.00000   0.00305   0.00306   0.00291
   D45       -3.13918   0.00001   0.00000   0.00230   0.00231  -3.13687
   D46        3.13969   0.00000   0.00000   0.00152   0.00147   3.14116
   D47       -0.00039   0.00002   0.00000   0.00518   0.00513   0.00474
   D48       -0.00102   0.00000   0.00000   0.00371   0.00373   0.00271
   D49       -3.14110   0.00002   0.00000   0.00737   0.00739  -3.13371
   D50        0.00024   0.00001   0.00000   0.00012   0.00011   0.00035
   D51        3.14109   0.00001   0.00000   0.00085   0.00085  -3.14125
   D52        3.14033  -0.00001   0.00000  -0.00351  -0.00352   3.13681
   D53       -0.00200  -0.00001   0.00000  -0.00278  -0.00279  -0.00479
   D54        0.00061  -0.00000   0.00000  -0.00245  -0.00245  -0.00184
   D55       -3.13931  -0.00000   0.00000  -0.00090  -0.00090  -3.14021
   D56       -3.14024  -0.00001   0.00000  -0.00318  -0.00319   3.13976
   D57        0.00303  -0.00001   0.00000  -0.00163  -0.00164   0.00139
   D58       -0.00065  -0.00001   0.00000   0.00083   0.00083   0.00018
   D59        3.13926  -0.00001   0.00000  -0.00073  -0.00073   3.13853
   D60        3.13833  -0.00000   0.00000   0.00160   0.00159   3.13993
   D61       -0.00495  -0.00000   0.00000   0.00004   0.00004  -0.00491
   D62        1.70930   0.00002   0.00000  -0.07079  -0.07086   1.63844
   D63       -2.51361   0.00008   0.00000  -0.07125  -0.07114  -2.58475
   D64        0.90094   0.00009   0.00000   0.06866   0.06808   0.96903
   D65        1.16145   0.00002   0.00000   0.10590   0.10406   1.26551
   D66       -1.74004  -0.00000   0.00000  -0.00519  -0.00499  -1.74503
   D67        1.16865   0.00010   0.00000  -0.09433  -0.09547   1.07318
         Item               Value     Threshold  Converged?
 Maximum Force            0.000513     0.002500     YES
 RMS     Force            0.000080     0.001667     YES
 Maximum Displacement     0.070081     0.010000     NO 
 RMS     Displacement     0.014721     0.006667     NO 
 Predicted change in Energy=-5.574845D-06
 GradGradGradGradGradGradGradGradGradGradGradGradGradGradGradGradGradGrad

                          Input orientation:                          
 ---------------------------------------------------------------------
 Center     Atomic      Atomic             Coordinates (Angstroms)
 Number     Number       Type             X           Y           Z
 ---------------------------------------------------------------------
      1          6           0        1.682316    0.603397   -1.134738
      2          6           0        1.214512    1.873273   -0.789250
      3          6           0        0.879552   -0.556189   -0.998410
      4          1           0        2.695219    0.489026   -1.505823
      5          6           0       -0.068819    2.035788   -0.303837
      6          1           0        1.867430    2.731441   -0.904889
      7          6           0       -0.934820    0.914021   -0.150353
      8          1           0       -0.441441    3.020426   -0.041158
      9          6           0       -0.478860   -0.388991   -0.489522
     10          6           0       -1.363969   -1.473476   -0.315050
     11          6           0       -2.639517   -1.282679    0.167796
     12          1           0       -1.039811   -2.478204   -0.558726
     13          6           0       -2.251978    1.085043    0.342624
     14          6           0       -3.091253    0.009858    0.499980
     15          1           0       -2.586006    2.087406    0.592752
     16          1           0       -3.301434   -2.132302    0.293527
     17          1           0       -4.096815    0.148777    0.880508
     18          6           0        1.428039   -1.796371   -1.320992
     19          1           0        2.453379   -1.179207    0.869950
     20          1           0        2.433424   -1.848295   -1.722389
     21          1           0        0.882740   -2.726684   -1.238131
     22          8           0        2.756270   -0.528255    1.524473
     23          8           0        1.505986   -0.051820    2.012087
     24          1           0        1.413146    0.779496    1.520409
 ---------------------------------------------------------------------
                    Distance matrix (angstroms):
                    1          2          3          4          5
     1  C    0.000000
     2  C    1.396707   0.000000
     3  C    1.416917   2.461348   0.000000
     4  H    1.084784   2.149910   2.155595   0.000000
     5  C    2.410107   1.381656   2.846082   3.387794   0.000000
     6  H    2.148411   1.084494   3.434117   2.464708   2.143421
     7  C    2.813344   2.438849   2.484484   3.898090   1.425440
     8  H    3.398278   2.148902   3.931098   4.288574   1.085062
     9  C    2.464106   2.841687   1.460207   3.446528   2.466205
    10  C    3.776922   4.251372   2.518290   4.663300   3.740652
    11  C    4.892047   5.072427   3.777787   5.865096   4.224116
    12  H    4.151870   4.906166   2.751620   4.863321   4.624275
    13  C    4.230042   3.730818   3.781335   5.314768   2.467390
    14  C    5.080508   4.865598   4.281691   6.142972   3.726342
    15  H    4.837880   4.049656   4.640095   5.903404   2.672596
    16  H    5.861890   6.132765   4.651223   6.787405   5.308448
    17  H    6.137284   5.828566   5.365775   7.207085   4.603069
    18  C    2.420378   3.714113   1.393897   2.619723   4.237998
    19  H    2.791234   3.688547   2.521082   2.913037   4.251524
    20  H    2.630645   4.025739   2.146673   2.361887   4.833179
    21  H    3.426288   4.633700   2.183696   3.701018   4.945656
    22  O    3.083085   3.673917   3.144485   3.197074   4.230622
    23  O    3.219146   3.411514   3.116070   3.752662   3.493082
    24  H    2.674560   2.563265   2.900556   3.299419   2.665027
                    6          7          8          9         10
     6  H    0.000000
     7  C    3.424171   0.000000
     8  H    2.482021   2.166170   0.000000
     9  C    3.926156   1.421539   3.438976   0.000000
    10  C    5.335839   2.431344   4.595784   1.410662   0.000000
    11  C    6.129958   2.798696   4.836519   2.428824   1.377159
    12  H    5.975975   3.418329   5.555254   2.164317   1.083482
    13  C    4.608301   1.416750   2.677880   2.451365   2.786955
    14  C    5.828311   2.427065   4.046956   2.821843   2.418278
    15  H    4.742447   2.157650   2.423123   3.426941   3.872643
    16  H    7.197871   3.883036   5.902727   3.408699   2.134991
    17  H    6.740179   3.412695   4.738945   3.905865   3.395514
    18  C    4.568073   3.781497   5.323013   2.511638   2.985211
    19  H    4.334347   4.111267   5.181412   3.327256   4.007863
    20  H    4.686432   4.631064   5.898800   3.482948   4.067098
    21  H    5.556240   4.212068   6.017929   2.806988   2.733186
    22  O    4.161425   4.302249   5.026897   3.813349   4.610169
    23  O    4.047954   3.400960   4.176958   3.211128   3.958953
    24  H    3.146194   2.884873   3.301478   2.997477   4.019597
                   11         12         13         14         15
    11  C    0.000000
    12  H    2.125129   0.000000
    13  C    2.405589   3.870208   0.000000
    14  C    1.408923   3.394073   1.373013   0.000000
    15  H    3.397194   4.955947   1.085758   2.140113   0.000000
    16  H    1.084344   2.441500   3.384535   2.162325   4.290374
    17  H    2.163502   4.279918   2.137601   1.084092   2.474597
    18  C    4.361809   2.671371   4.961118   5.196384   5.904125
    19  H    5.142113   3.991351   5.248361   5.682755   6.011905
    20  H    5.443111   3.716753   5.900996   6.238086   6.785595
    21  H    4.058087   2.054150   5.182134   5.128578   6.209653
    22  O    5.614645   4.748921   5.392777   5.960929   6.020772
    23  O    4.701235   4.356317   4.266363   4.839925   4.830652
    24  H    4.744071   4.577380   3.861823   4.682225   4.308642
                   16         17         18         19         20
    16  H    0.000000
    17  H    2.486061   0.000000
    18  C    5.008736   6.257333   0.000000
    19  H    5.861615   6.683465   2.496486   0.000000
    20  H    6.085489   7.308037   1.083797   2.677369   0.000000
    21  H    4.495172   6.128040   1.081527   3.050508   1.846807
    22  O    6.386233   6.916490   3.386590   0.971536   3.519780
    23  O    5.512997   5.719448   3.762838   1.863607   4.246619
    24  H    5.675480   5.582737   3.835215   2.311212   4.296743
                   21         22         23         24
    21  H    0.000000
    22  O    3.996897   0.000000
    23  O    4.255261   1.424067   0.000000
    24  H    4.492680   1.874622   0.970284   0.000000
 Stoichiometry    C11H11O2(2)
 Framework group  C1[X(C11H11O2)]
 Deg. of freedom    66
 Full point group                 C1      NOp   1
 Largest Abelian subgroup         C1      NOp   1
 Largest concise Abelian subgroup C1      NOp   1
                         Standard orientation:                         
 ---------------------------------------------------------------------
 Center     Atomic      Atomic             Coordinates (Angstroms)
 Number     Number       Type             X           Y           Z
 ---------------------------------------------------------------------
      1          6           0        1.680467    0.516981   -1.162486
      2          6           0        1.226019    1.809125   -0.889300
      3          6           0        0.866021   -0.624717   -0.960352
      4          1           0        2.691777    0.371380   -1.526915
      5          6           0       -0.055099    2.012043   -0.413343
      6          1           0        1.887564    2.652616   -1.053641
      7          6           0       -0.932375    0.909721   -0.196196
      8          1           0       -0.417370    3.013753   -0.206712
      9          6           0       -0.490102   -0.415023   -0.461191
     10          6           0       -1.386082   -1.478740   -0.225194
     11          6           0       -2.659131   -1.247812    0.246596
     12          1           0       -1.072459   -2.498932   -0.411694
     13          6           0       -2.247224    1.121908    0.286847
     14          6           0       -3.097294    0.066037    0.505209
     15          1           0       -2.570733    2.140206    0.479925
     16          1           0       -3.329578   -2.082108    0.420531
     17          1           0       -4.101004    0.236604    0.877672
     18          6           0        1.401474   -1.886746   -1.212385
     19          1           0        2.435253   -1.157029    0.939651
     20          1           0        2.405876   -1.971644   -1.610612
     21          1           0        0.846772   -2.805225   -1.076727
     22          8           0        2.745436   -0.473190    1.556119
     23          8           0        1.500576    0.042912    2.016476
     24          1           0        1.415755    0.845952    1.478532
 ---------------------------------------------------------------------
 Rotational constants (GHZ):           1.1491157           0.6480879           0.5877055
 Standard basis: 6-31G(d,p) (6D, 7F)
 There are   250 symmetry adapted cartesian basis functions of A   symmetry.
 There are   250 symmetry adapted basis functions of A   symmetry.
   250 basis functions,   441 primitive gaussians,   250 cartesian basis functions
    47 alpha electrons       46 beta electrons
       nuclear repulsion energy       757.0314248200 Hartrees.
 NAtoms=   24 NActive=   24 NUniq=   24 SFac= 1.00D+00 NAtFMM=   60 NAOKFM=F Big=F
 Integral buffers will be    131072 words long.
 Raffenetti 2 integral format.
 Two-electron integral symmetry is turned on.
 One-electron integrals computed using PRISM.
 NBasis=   250 RedAO= T EigKep=  2.74D-04  NBF=   250
 NBsUse=   250 1.00D-06 EigRej= -1.00D+00 NBFU=   250
 Initial guess from the checkpoint file:  "/scratch/dinius.ab/QMscratch/Gau-220301.chk"
 B after Tr=     0.000000    0.000000    0.000000
         Rot=    0.999987   -0.004589   -0.001979   -0.001225 Ang=  -0.59 deg.
 Initial guess <Sx>= 0.0000 <Sy>= 0.0000 <Sz>= 0.5000 <S**2>= 0.7907 S= 0.5202
 ExpMin= 1.61D-01 ExpMax= 5.48D+03 ExpMxC= 8.25D+02 IAcc=1 IRadAn=         1 AccDes= 0.00D+00
 Harris functional with IExCor= 1009 and IRadAn=       1 diagonalized for initial guess.
 HarFok:  IExCor= 1009 AccDes= 0.00D+00 IRadAn=         1 IDoV= 1 UseB2=F ITyADJ=14
 ICtDFT=  3500011 ScaDFX=  1.000000  1.000000  1.000000  1.000000
 FoFCou: FMM=F IPFlag=           0 FMFlag=      100000 FMFlg1=           0
         NFxFlg=           0 DoJE=T BraDBF=F KetDBF=T FulRan=T
         wScrn=  0.000000 ICntrl=       500 IOpCl=  0 I1Cent=   200000004 NGrid=           0
         NMat0=    1 NMatS0=      1 NMatT0=    0 NMatD0=    1 NMtDS0=    0 NMtDT0=    0
 Petite list used in FoFCou.
