 Entering Gaussian System, Link 0=g16
 Input=rxn906final.com
 Output=rxn906final.log
 Initial command:
 /shared/centos7/gaussian/g16/l1.exe "/scratch/dinius.ab/QMscratch/Gau-32058.inp" -scrdir="/scratch/dinius.ab/QMscratch/"
 Default is to use a total of  20 processors:
                               20 via shared-memory
                                1 via Linda
 Entering Link 1 = /shared/centos7/gaussian/g16/l1.exe PID=     32059.
  
 Copyright (c) 1988,1990,1992,1993,1995,1998,2003,2009,2016,
            Gaussian, Inc.  All Rights Reserved.
  
 This is part of the Gaussian(R) 16 program.  It is based on
 the Gaussian(R) 09 system (copyright 2009, Gaussian, Inc.),
 the Gaussian(R) 03 system (copyright 2003, Gaussian, Inc.),
 the Gaussian(R) 98 system (copyright 1998, Gaussian, Inc.),
 the Gaussian(R) 94 system (copyright 1995, Gaussian, Inc.),
 the Gaussian 92(TM) system (copyright 1992, Gaussian, Inc.),
 the Gaussian 90(TM) system (copyright 1990, Gaussian, Inc.),
 the Gaussian 88(TM) system (copyright 1988, Gaussian, Inc.),
 the Gaussian 86(TM) system (copyright 1986, Carnegie Mellon
 University), and the Gaussian 82(TM) system (copyright 1983,
 Carnegie Mellon University). Gaussian is a federally registered
 trademark of Gaussian, Inc.
  
 This software contains proprietary and confidential information,
 including trade secrets, belonging to Gaussian, Inc.
  
 This software is provided under written license and may be
 used, copied, transmitted, or stored only in accord with that
 written license.
  
 The following legend is applicable only to US Government
 contracts under FAR:
  
                    RESTRICTED RIGHTS LEGEND
  
 Use, reproduction and disclosure by the US Government is
 subject to restrictions as set forth in subparagraphs (a)
 and (c) of the Commercial Computer Software - Restricted
 Rights clause in FAR 52.227-19.
  
 Gaussian, Inc.
 340 Quinnipiac St., Bldg. 40, Wallingford CT 06492
  
  
 ---------------------------------------------------------------
 Warning -- This program may not be used in any manner that
 competes with the business of Gaussian, Inc. or will provide
 assistance to any competitor of Gaussian, Inc.  The licensee
 of this program is prohibited from giving any competitor of
 Gaussian, Inc. access to this program.  By using this program,
 the user acknowledges that Gaussian, Inc. is engaged in the
 business of creating and licensing software in the field of
 computational chemistry and represents and warrants to the
 licensee that it is not a competitor of Gaussian, Inc. and that
 it will not use this program in any manner prohibited above.
 ---------------------------------------------------------------
  

 Cite this work as:
 Gaussian 16, Revision A.03,
 M. J. Frisch, G. W. Trucks, H. B. Schlegel, G. E. Scuseria, 
 M. A. Robb, J. R. Cheeseman, G. Scalmani, V. Barone, 
 G. A. Petersson, H. Nakatsuji, X. Li, M. Caricato, A. V. Marenich, 
 J. Bloino, B. G. Janesko, R. Gomperts, B. Mennucci, H. P. Hratchian, 
 J. V. Ortiz, A. F. Izmaylov, J. L. Sonnenberg, D. Williams-Young, 
 F. Ding, F. Lipparini, F. Egidi, J. Goings, B. Peng, A. Petrone, 
 T. Henderson, D. Ranasinghe, V. G. Zakrzewski, J. Gao, N. Rega, 
 G. Zheng, W. Liang, M. Hada, M. Ehara, K. Toyota, R. Fukuda, 
 J. Hasegawa, M. Ishida, T. Nakajima, Y. Honda, O. Kitao, H. Nakai, 
 T. Vreven, K. Throssell, J. A. Montgomery, Jr., J. E. Peralta, 
 F. Ogliaro, M. J. Bearpark, J. J. Heyd, E. N. Brothers, K. N. Kudin, 
 V. N. Staroverov, T. A. Keith, R. Kobayashi, J. Normand, 
 K. Raghavachari, A. P. Rendell, J. C. Burant, S. S. Iyengar, 
 J. Tomasi, M. Cossi, J. M. Millam, M. Klene, C. Adamo, R. Cammi, 
 J. W. Ochterski, R. L. Martin, K. Morokuma, O. Farkas, 
 J. B. Foresman, and D. J. Fox, Gaussian, Inc., Wallingford CT, 2016.
 
 ******************************************
 Gaussian 16:  EM64L-G16RevA.03 25-Dec-2016
                 5-Feb-2019 
 ******************************************
 ----------------------------------------------------------------------
 #m062x/6-311+g(2df,2p) Opt=(ModRedun,Loose,maxcycle=1000) Int(Grid=SG1
 ) freq
 ----------------------------------------------------------------------
 1/6=1000,7=-1,18=120,19=15,26=2,38=1/1,3;
 2/9=110,12=2,17=6,18=5,40=1/2;
 3/5=4,6=6,7=214,11=2,25=1,30=1,71=1,74=-55,75=1/1,2,3;
 4//1;
 5/5=2,38=5/2;
 6/7=2,8=2,9=2,10=2,28=1/1;
 7//1,2,3,16;
 1/6=1000,7=-1,18=20,19=15,26=2/3(2);
 2/9=110/2;
 99//99;
 2/9=110/2;
 3/5=4,6=6,7=214,11=2,25=1,30=1,71=1,74=-55,75=1/1,2,3;
 4/5=5,16=3,69=1/1;
 5/5=2,38=5/2;
 7//1,2,3,16;
 1/6=1000,7=-1,18=20,19=15,26=2/3(-5);
 2/9=110/2;
 6/7=2,8=2,9=2,10=2,19=2,28=1/1;
 99/9=1/99;
 -----
 Title
 -----
 Symbolic Z-matrix:
 Charge =  0 Multiplicity = 2
 C                     0.9247    1.99701  -0.28535 
 C                    -0.1908    2.68223   0.22137 
 C                     0.87566   0.64914  -0.59959 
 H                     1.84905   2.53645  -0.45154 
 C                    -1.36981   2.01884   0.42127 
 H                    -0.11363   3.73742   0.4434 
 C                    -1.47384   0.63479   0.13778 
 H                    -2.24041   2.53715   0.80078 
 C                    -0.3471   -0.07096  -0.36185 
 C                    -0.47982  -1.4602   -0.60175 
 C                    -1.66667  -2.10409  -0.38247 
 H                     0.37309  -2.02866  -0.93927 
 C                    -2.68985  -0.05958   0.35229 
 C                    -2.78919  -1.39653   0.09537 
 H                    -3.54167   0.49456   0.7245 
 H                    -1.74253  -3.16624  -0.57001 
 H                    -3.72376  -1.91521   0.25951 
 C                     2.07277   0.00044  -1.10212 
 H                     2.63817  -0.386    -0.22856 
 H                     2.82356   0.67346  -1.50612 
 H                     1.9557   -0.90025  -1.69255 
 O                     3.14067  -0.73161   0.54141 
 O                     2.20028  -1.52107   1.2034 
 H                     1.79855  -0.90785   1.83154 
 
 The following ModRedundant input section has been read:
 

 GradGradGradGradGradGradGradGradGradGradGradGradGradGradGradGradGradGrad
 Berny optimization.
 Initialization pass.
                           ----------------------------
                           !    Initial Parameters    !
                           ! (Angstroms and Degrees)  !
 --------------------------                            --------------------------
 ! Name  Definition              Value          Derivative Info.                !
 --------------------------------------------------------------------------------
 ! R1    R(1,2)                  1.4038         estimate D2E/DX2                !
 ! R2    R(1,3)                  1.3849         estimate D2E/DX2                !
 ! R3    R(1,4)                  1.0831         estimate D2E/DX2                !
 ! R4    R(2,5)                  1.3675         estimate D2E/DX2                !
 ! R5    R(2,6)                  1.0811         estimate D2E/DX2                !
 ! R6    R(3,9)                  1.4388         estimate D2E/DX2                !
 ! R7    R(3,18)                 1.4514         estimate D2E/DX2                !
 ! R8    R(5,7)                  1.4166         estimate D2E/DX2                !
 ! R9    R(5,8)                  1.082          estimate D2E/DX2                !
 ! R10   R(7,9)                  1.4203         estimate D2E/DX2                !
 ! R11   R(7,13)                 1.4166         estimate D2E/DX2                !
 ! R12   R(9,10)                 1.416          estimate D2E/DX2                !
 ! R13   R(10,11)                1.368          estimate D2E/DX2                !
 ! R14   R(10,12)                1.0791         estimate D2E/DX2                !
 ! R15   R(11,14)                1.4103         estimate D2E/DX2                !
 ! R16   R(11,16)                1.0812         estimate D2E/DX2                !
 ! R17   R(13,14)                1.365          estimate D2E/DX2                !
 ! R18   R(13,15)                1.0822         estimate D2E/DX2                !
 ! R19   R(14,17)                1.0814         estimate D2E/DX2                !
 ! R20   R(18,19)                1.11           estimate D2E/DX2                !
 ! R21   R(18,20)                1.0862         estimate D2E/DX2                !
 ! R22   R(18,21)                1.0833         estimate D2E/DX2                !
 ! R23   R(19,22)                0.9822         estimate D2E/DX2                !
 ! R24   R(22,23)                1.3949         estimate D2E/DX2                !
 ! R25   R(23,24)                0.9654         estimate D2E/DX2                !
 ! A1    A(2,1,3)              121.9272         estimate D2E/DX2                !
 ! A2    A(2,1,4)              119.3705         estimate D2E/DX2                !
 ! A3    A(3,1,4)              118.6957         estimate D2E/DX2                !
 ! A4    A(1,2,5)              120.0708         estimate D2E/DX2                !
 ! A5    A(1,2,6)              119.5942         estimate D2E/DX2                !
 ! A6    A(5,2,6)              120.3327         estimate D2E/DX2                !
 ! A7    A(1,3,9)              118.666          estimate D2E/DX2                !
 ! A8    A(1,3,18)             118.9716         estimate D2E/DX2                !
 ! A9    A(9,3,18)             122.3087         estimate D2E/DX2                !
 ! A10   A(2,5,7)              120.5317         estimate D2E/DX2                !
 ! A11   A(2,5,8)              120.8386         estimate D2E/DX2                !
 ! A12   A(7,5,8)              118.6295         estimate D2E/DX2                !
 ! A13   A(5,7,9)              119.8427         estimate D2E/DX2                !
 ! A14   A(5,7,13)             120.772          estimate D2E/DX2                !
 ! A15   A(9,7,13)             119.3847         estimate D2E/DX2                !
 ! A16   A(3,9,7)              118.922          estimate D2E/DX2                !
 ! A17   A(3,9,10)             122.8654         estimate D2E/DX2                !
 ! A18   A(7,9,10)             118.2124         estimate D2E/DX2                !
 ! A19   A(9,10,11)            121.061          estimate D2E/DX2                !
 ! A20   A(9,10,12)            119.7171         estimate D2E/DX2                !
 ! A21   A(11,10,12)           119.2038         estimate D2E/DX2                !
 ! A22   A(10,11,14)           120.5786         estimate D2E/DX2                !
 ! A23   A(10,11,16)           119.6996         estimate D2E/DX2                !
 ! A24   A(14,11,16)           119.7201         estimate D2E/DX2                !
 ! A25   A(7,13,14)            120.9334         estimate D2E/DX2                !
 ! A26   A(7,13,15)            118.4723         estimate D2E/DX2                !
 ! A27   A(14,13,15)           120.5943         estimate D2E/DX2                !
 ! A28   A(11,14,13)           119.8166         estimate D2E/DX2                !
 ! A29   A(11,14,17)           119.9114         estimate D2E/DX2                !
 ! A30   A(13,14,17)           120.2718         estimate D2E/DX2                !
 ! A31   A(3,18,19)            107.6529         estimate D2E/DX2                !
 ! A32   A(3,18,20)            114.9585         estimate D2E/DX2                !
 ! A33   A(3,18,21)            118.1119         estimate D2E/DX2                !
 ! A34   A(19,18,20)            98.9947         estimate D2E/DX2                !
 ! A35   A(19,18,21)           101.2166         estimate D2E/DX2                !
 ! A36   A(20,18,21)           112.7764         estimate D2E/DX2                !
 ! A37   A(19,22,23)           103.077          estimate D2E/DX2                !
 ! A38   A(22,23,24)           103.2867         estimate D2E/DX2                !
 ! A39   L(18,19,22,11,-1)     180.0357         estimate D2E/DX2                !
 ! A40   L(18,19,22,11,-2)     179.674          estimate D2E/DX2                !
 ! D1    D(3,1,2,5)              0.1443         estimate D2E/DX2                !
 ! D2    D(3,1,2,6)           -179.3085         estimate D2E/DX2                !
 ! D3    D(4,1,2,5)            179.1999         estimate D2E/DX2                !
 ! D4    D(4,1,2,6)             -0.2529         estimate D2E/DX2                !
 ! D5    D(2,1,3,9)             -1.7582         estimate D2E/DX2                !
 ! D6    D(2,1,3,18)          -179.155          estimate D2E/DX2                !
 ! D7    D(4,1,3,9)            179.18           estimate D2E/DX2                !
 ! D8    D(4,1,3,18)             1.7832         estimate D2E/DX2                !
 ! D9    D(1,2,5,7)              0.8539         estimate D2E/DX2                !
 ! D10   D(1,2,5,8)           -179.3117         estimate D2E/DX2                !
 ! D11   D(6,2,5,7)           -179.6974         estimate D2E/DX2                !
 ! D12   D(6,2,5,8)              0.137          estimate D2E/DX2                !
 ! D13   D(1,3,9,7)              2.3631         estimate D2E/DX2                !
 ! D14   D(1,3,9,10)          -177.505          estimate D2E/DX2                !
 ! D15   D(18,3,9,7)           179.6684         estimate D2E/DX2                !
 ! D16   D(18,3,9,10)           -0.1997         estimate D2E/DX2                !
 ! D17   D(1,3,18,19)           89.6797         estimate D2E/DX2                !
 ! D18   D(1,3,18,20)          -19.5334         estimate D2E/DX2                !
 ! D19   D(1,3,18,21)         -156.652          estimate D2E/DX2                !
 ! D20   D(9,3,18,19)          -87.6177         estimate D2E/DX2                !
 ! D21   D(9,3,18,20)          163.1692         estimate D2E/DX2                !
 ! D22   D(9,3,18,21)           26.0505         estimate D2E/DX2                !
 ! D23   D(2,5,7,9)             -0.1845         estimate D2E/DX2                !
 ! D24   D(2,5,7,13)           179.5307         estimate D2E/DX2                !
 ! D25   D(8,5,7,9)            179.9775         estimate D2E/DX2                !
 ! D26   D(8,5,7,13)            -0.3073         estimate D2E/DX2                !
 ! D27   D(5,7,9,3)             -1.4269         estimate D2E/DX2                !
 ! D28   D(5,7,9,10)           178.4474         estimate D2E/DX2                !
 ! D29   D(13,7,9,3)           178.8539         estimate D2E/DX2                !
 ! D30   D(13,7,9,10)           -1.2718         estimate D2E/DX2                !
 ! D31   D(5,7,13,14)         -179.2103         estimate D2E/DX2                !
 ! D32   D(5,7,13,15)            0.853          estimate D2E/DX2                !
 ! D33   D(9,7,13,14)            0.5062         estimate D2E/DX2                !
 ! D34   D(9,7,13,15)         -179.4305         estimate D2E/DX2                !
 ! D35   D(3,9,10,11)         -178.9631         estimate D2E/DX2                !
 ! D36   D(3,9,10,12)            2.5958         estimate D2E/DX2                !
 ! D37   D(7,9,10,11)            1.1679         estimate D2E/DX2                !
 ! D38   D(7,9,10,12)         -177.2732         estimate D2E/DX2                !
 ! D39   D(9,10,11,14)          -0.274          estimate D2E/DX2                !
 ! D40   D(9,10,11,16)        -179.8047         estimate D2E/DX2                !
 ! D41   D(12,10,11,14)        178.1751         estimate D2E/DX2                !
 ! D42   D(12,10,11,16)         -1.3557         estimate D2E/DX2                !
 ! D43   D(10,11,14,13)         -0.5329         estimate D2E/DX2                !
 ! D44   D(10,11,14,17)        179.6472         estimate D2E/DX2                !
 ! D45   D(16,11,14,13)        178.9977         estimate D2E/DX2                !
 ! D46   D(16,11,14,17)         -0.8221         estimate D2E/DX2                !
 ! D47   D(7,13,14,11)           0.4073         estimate D2E/DX2                !
 ! D48   D(7,13,14,17)        -179.7735         estimate D2E/DX2                !
 ! D49   D(15,13,14,11)       -179.6573         estimate D2E/DX2                !
 ! D50   D(15,13,14,17)          0.1619         estimate D2E/DX2                !
 ! D51   D(3,18,22,23)          54.6445         estimate D2E/DX2                !
 ! D52   D(20,18,22,23)        174.601          estimate D2E/DX2                !
 ! D53   D(21,18,22,23)        -69.9059         estimate D2E/DX2                !
 ! D54   D(19,22,23,24)        -91.309          estimate D2E/DX2                !
 --------------------------------------------------------------------------------
 Trust Radius=3.00D-01 FncErr=1.00D-05 GrdErr=1.00D-04 EigMax=2.50D+02 EigMin=1.00D-04
 Number of steps in this run=    144 maximum allowed number of steps=    144.
 GradGradGradGradGradGradGradGradGradGradGradGradGradGradGradGradGradGrad

                          Input orientation:                          
 ---------------------------------------------------------------------
 Center     Atomic      Atomic             Coordinates (Angstroms)
 Number     Number       Type             X           Y           Z
 ---------------------------------------------------------------------
      1          6           0        0.924700    1.997010   -0.285350
      2          6           0       -0.190800    2.682230    0.221370
      3          6           0        0.875660    0.649140   -0.599590
      4          1           0        1.849050    2.536450   -0.451540
      5          6           0       -1.369810    2.018840    0.421270
      6          1           0       -0.113630    3.737420    0.443400
      7          6           0       -1.473840    0.634790    0.137780
      8          1           0       -2.240410    2.537150    0.800780
      9          6           0       -0.347100   -0.070960   -0.361850
     10          6           0       -0.479820   -1.460200   -0.601750
     11          6           0       -1.666670   -2.104090   -0.382470
     12          1           0        0.373090   -2.028660   -0.939270
     13          6           0       -2.689850   -0.059580    0.352290
     14          6           0       -2.789190   -1.396530    0.095370
     15          1           0       -3.541670    0.494560    0.724500
     16          1           0       -1.742530   -3.166240   -0.570010
     17          1           0       -3.723760   -1.915210    0.259510
     18          6           0        2.072770    0.000440   -1.102120
     19          1           0        2.638170   -0.386000   -0.228560
     20          1           0        2.823560    0.673460   -1.506120
     21          1           0        1.955700   -0.900250   -1.692550
     22          8           0        3.140670   -0.731610    0.541410
     23          8           0        2.200280   -1.521070    1.203400
     24          1           0        1.798550   -0.907850    1.831540
 ---------------------------------------------------------------------
                    Distance matrix (angstroms):
                    1          2          3          4          5
     1  C    0.000000
     2  C    1.403792   0.000000
     3  C    1.384885   2.438189   0.000000
     4  H    1.083069   2.152916   2.128696   0.000000
     5  C    2.400951   1.367520   2.821413   3.375023   0.000000
     6  H    2.153656   1.081054   3.406464   2.468878   2.128848
     7  C    2.790641   2.417683   2.462533   3.873655   1.416610
     8  H    3.389595   2.134869   3.903269   4.276913   1.081951
     9  C    2.428956   2.818622   1.438821   3.410235   2.454888
    10  C    3.745008   4.233295   2.507318   4.628111   3.733949
    11  C    4.852180   5.044965   3.753779   5.822342   4.211018
    12  H    4.115568   4.884418   2.745646   4.822506   4.612052
    13  C    4.207270   3.712131   3.757821   5.290286   2.463147
    14  C    5.045200   4.837746   4.254276   6.105793   3.712897
    15  H    4.819296   4.033283   4.614099   5.883217   2.670647
    16  H    5.818445   6.102356   4.627409   6.740486   5.292127
    17  H    6.100042   5.798251   5.335598   7.167920   4.587374
    18  C    2.443659   3.750650   1.451351   2.627670   4.271535
    19  H    2.935633   4.197564   2.077407   3.035316   4.719051
    20  H    2.616817   4.013196   2.148651   2.352135   4.807206
    21  H    3.381906   4.593987   2.182122   3.655460   4.903910
    22  O    3.611014   4.780734   2.887667   3.651636   5.284301
    23  O    4.027452   4.934509   3.116922   4.396096   5.088048
    24  H    3.699061   4.408949   3.030897   4.132579   4.537938
                    6          7          8          9         10
     6  H    0.000000
     7  C    3.401454   0.000000
     8  H    2.468109   2.155498   0.000000
     9  C    3.899576   1.420301   3.426160   0.000000
    10  C    5.314291   2.433919   4.587546   1.416035   0.000000
    11  C    6.100593   2.794514   4.823937   2.423903   1.367951
    12  H    5.949483   3.415429   5.541189   2.164411   1.079130
    13  C    4.589381   1.416631   2.673228   2.449205   2.784989
    14  C    5.799758   2.420373   4.033931   2.816024   2.413135
    15  H    4.727221   2.154025   2.423070   3.421293   3.867163
    16  H    7.165252   3.875692   5.886901   3.401663   2.122738
    17  H    6.709626   3.402860   4.724067   3.897330   3.387027
    18  C    4.597173   3.810275   5.353452   2.531574   2.983212
    19  H    5.002652   4.252628   5.779696   3.004805   3.318891
    20  H    4.670713   4.601255   5.868468   3.452043   4.035184
    21  H    5.509301   4.179498   5.969904   2.785924   2.726746
    22  O    5.529223   4.829458   6.301435   3.662905   3.865955
    23  O    5.795127   4.391177   6.029177   3.322946   3.231905
    24  H    5.211708   3.994634   5.407743   3.180434   3.378899
                   11         12         13         14         15
    11  C    0.000000
    12  H    2.115736   0.000000
    13  C    2.401414   3.863548   0.000000
    14  C    1.410327   3.386751   1.365032   0.000000
    15  H    3.390279   4.945717   1.082224   2.130317   0.000000
    16  H    1.081244   2.430286   3.376298   2.161042   4.279500
    17  H    2.163200   4.270143   2.126250   1.081384   2.460968
    18  C    4.350903   2.651920   4.980106   5.198477   5.924747
    19  H    4.637582   2.886872   5.369519   5.530130   6.314597
    20  H    5.398105   3.691555   5.864190   6.192947   6.747134
    21  H    4.035729   2.084561   5.144826   5.094795   6.165120
    22  O    5.084071   3.396211   5.872168   5.983670   6.796373
    23  O    4.219976   2.861347   5.174332   5.112539   6.104269
    24  H    4.282590   3.311426   4.801404   4.929549   5.631185
                   16         17         18         19         20
    16  H    0.000000
    17  H    2.485649   0.000000
    18  C    4.986734   6.254879   0.000000
    19  H    5.199698   6.561315   1.110009   0.000000
    20  H    6.038938   7.258516   1.086212   1.670025   0.000000
    21  H    4.480146   6.090726   1.083308   1.695136   1.806793
    22  O    5.568511   6.971426   2.092247   0.982246   2.503430
    23  O    4.625724   6.011699   2.765262   1.879000   3.542025
    24  H    4.838080   5.829405   3.083269   2.285017   3.832905
                   21         22         23         24
    21  H    0.000000
    22  O    2.534397   0.000000
    23  O    2.971828   1.394923   0.000000
    24  H    3.527600   1.869968   0.965394   0.000000
 Stoichiometry    C11H11O2(2)
 Framework group  C1[X(C11H11O2)]
 Deg. of freedom    66
 Full point group                 C1      NOp   1
 Largest Abelian subgroup         C1      NOp   1
 Largest concise Abelian subgroup C1      NOp   1
                         Standard orientation:                         
 ---------------------------------------------------------------------
 Center     Atomic      Atomic             Coordinates (Angstroms)
 Number     Number       Type             X           Y           Z
 ---------------------------------------------------------------------
      1          6           0        0.924695    1.997013   -0.285348
      2          6           0       -0.190807    2.682230    0.221372
      3          6           0        0.875658    0.649143   -0.599588
      4          1           0        1.849043    2.536455   -0.451538
      5          6           0       -1.369815    2.018837    0.421272
      6          1           0       -0.113640    3.737420    0.443402
      7          6           0       -1.473842    0.634787    0.137782
      8          1           0       -2.240417    2.537145    0.800782
      9          6           0       -0.347100   -0.070960   -0.361848
     10          6           0       -0.479817   -1.460200   -0.601748
     11          6           0       -1.666665   -2.104093   -0.382468
     12          1           0        0.373095   -2.028658   -0.939268
     13          6           0       -2.689850   -0.059586    0.352292
     14          6           0       -2.789187   -1.396536    0.095372
     15          1           0       -3.541671    0.494552    0.724502
     16          1           0       -1.742522   -3.166244   -0.570008
     17          1           0       -3.723755   -1.915219    0.259512
     18          6           0        2.072770    0.000446   -1.102118
     19          1           0        2.638171   -0.385993   -0.228558
     20          1           0        2.823558    0.673468   -1.506118
     21          1           0        1.955702   -0.900244   -1.692548
     22          8           0        3.140672   -0.731601    0.541412
     23          8           0        2.200284   -1.521064    1.203402
     24          1           0        1.798552   -0.907845    1.831542
 ---------------------------------------------------------------------
 Rotational constants (GHZ):           1.1002775           0.7169094           0.4944996
 Standard basis: 6-311+G(2df,2p) (5D, 7F)
 There are   606 symmetry adapted cartesian basis functions of A   symmetry.
 There are   541 symmetry adapted basis functions of A   symmetry.
   541 basis functions,   797 primitive gaussians,   606 cartesian basis functions
    47 alpha electrons       46 beta electrons
       nuclear repulsion energy       757.8434145349 Hartrees.
 NAtoms=   24 NActive=   24 NUniq=   24 SFac= 1.00D+00 NAtFMM=   60 NAOKFM=F Big=F
 Integral buffers will be    131072 words long.
 Raffenetti 2 integral format.
 Two-electron integral symmetry is turned on.
 One-electron integrals computed using PRISM.
 NBasis=   541 RedAO= T EigKep=  1.38D-06  NBF=   541
 NBsUse=   538 1.00D-06 EigRej=  7.88D-07 NBFU=   538
 ExpMin= 4.38D-02 ExpMax= 8.59D+03 ExpMxC= 1.30D+03 IAcc=2 IRadAn=         4 AccDes= 0.00D+00
 Harris functional with IExCor= 1009 and IRadAn=       4 diagonalized for initial guess.
 HarFok:  IExCor= 1009 AccDes= 0.00D+00 IRadAn=         4 IDoV= 1 UseB2=F ITyADJ=14
 ICtDFT=  3500011 ScaDFX=  1.000000  1.000000  1.000000  1.000000
 FoFCou: FMM=F IPFlag=           0 FMFlag=      100000 FMFlg1=           0
         NFxFlg=           0 DoJE=T BraDBF=F KetDBF=T FulRan=T
         wScrn=  0.000000 ICntrl=       500 IOpCl=  0 I1Cent=   200000004 NGrid=           0
         NMat0=    1 NMatS0=      1 NMatT0=    0 NMatD0=    1 NMtDS0=    0 NMtDT0=    0
 Petite list used in FoFCou.
 Initial guess <Sx>= 0.0000 <Sy>= 0.0000 <Sz>= 0.5000 <S**2>= 0.7500 S= 0.5000
 Requested convergence on RMS density matrix=1.00D-08 within 128 cycles.
 Requested convergence on MAX density matrix=1.00D-06.
 Requested convergence on             energy=1.00D-06.
 No special actions if energy rises.
 SCF Done:  E(UM062X) =  -575.980073230     A.U. after   19 cycles
            NFock= 19  Conv=0.76D-08     -V/T= 2.0028
 <Sx>= 0.0000 <Sy>= 0.0000 <Sz>= 0.5000 <S**2>= 0.7696 S= 0.5098
 <L.S>= 0.000000000000E+00
 Annihilation of the first spin contaminant:
 S**2 before annihilation     0.7696,   after     0.7502

 **********************************************************************

            Population analysis using the SCF density.

 **********************************************************************

 Orbital symmetries:
 Alpha Orbitals:
       Occupied  (A) (A) (A) (A) (A) (A) (A) (A) (A) (A) (A) (A)
                 (A) (A) (A) (A) (A) (A) (A) (A) (A) (A) (A) (A)
                 (A) (A) (A) (A) (A) (A) (A) (A) (A) (A) (A) (A)
                 (A) (A) (A) (A) (A) (A) (A) (A) (A) (A) (A)
       Virtual   (A) (A) (A) (A) (A) (A) (A) (A) (A) (A) (A) (A)
                 (A) (A) (A) (A) (A) (A) (A) (A) (A) (A) (A) (A)
                 (A) (A) (A) (A) (A) (A) (A) (A) (A) (A) (A) (A)
                 (A) (A) (A) (A) (A) (A) (A) (A) (A) (A) (A) (A)
                 (A) (A) (A) (A) (A) (A) (A) (A) (A) (A) (A) (A)
                 (A) (A) (A) (A) (A) (A) (A) (A) (A) (A) (A) (A)
                 (A) (A) (A) (A) (A) (A) (A) (A) (A) (A) (A) (A)
                 (A) (A) (A) (A) (A) (A) (A) (A) (A) (A) (A) (A)
                 (A) (A) (A) (A) (A) (A) (A) (A) (A) (A) (A) (A)
                 (A) (A) (A) (A) (A) (A) (A) (A) (A) (A) (A) (A)
                 (A) (A) (A) (A) (A) (A) (A) (A) (A) (A) (A) (A)
                 (A) (A) (A) (A) (A) (A) (A) (A) (A) (A) (A) (A)
                 (A) (A) (A) (A) (A) (A) (A) (A) (A) (A) (A) (A)
                 (A) (A) (A) (A) (A) (A) (A) (A) (A) (A) (A) (A)
                 (A) (A) (A) (A) (A) (A) (A) (A) (A) (A) (A) (A)
                 (A) (A) (A) (A) (A) (A) (A) (A) (A) (A) (A) (A)
                 (A) (A) (A) (A) (A) (A) (A) (A) (A) (A) (A) (A)
                 (A) (A) (A) (A) (A) (A) (A) (A) (A) (A) (A) (A)
                 (A) (A) (A) (A) (A) (A) (A) (A) (A) (A) (A) (A)
                 (A) (A) (A) (A) (A) (A) (A) (A) (A) (A) (A) (A)
                 (A) (A) (A) (A) (A) (A) (A) (A) (A) (A) (A) (A)
                 (A) (A) (A) (A) (A) (A) (A) (A) (A) (A) (A) (A)
                 (A) (A) (A) (A) (A) (A) (A) (A) (A) (A) (A) (A)
                 (A) (A) (A) (A) (A) (A) (A) (A) (A) (A) (A) (A)
                 (A) (A) (A) (A) (A) (A) (A) (A) (A) (A) (A) (A)
                 (A) (A) (A) (A) (A) (A) (A) (A) (A) (A) (A) (A)
                 (A) (A) (A) (A) (A) (A) (A) (A) (A) (A) (A) (A)
                 (A) (A) (A) (A) (A) (A) (A) (A) (A) (A) (A) (A)
                 (A) (A) (A) (A) (A) (A) (A) (A) (A) (A) (A) (A)
                 (A) (A) (A) (A) (A) (A) (A) (A) (A) (A) (A) (A)
                 (A) (A) (A) (A) (A) (A) (A) (A) (A) (A) (A) (A)
                 (A) (A) (A) (A) (A) (A) (A) (A) (A) (A) (A) (A)
                 (A) (A) (A) (A) (A) (A) (A) (A) (A) (A) (A) (A)
                 (A) (A) (A) (A) (A) (A) (A) (A) (A) (A) (A) (A)
                 (A) (A) (A) (A) (A) (A) (A) (A) (A) (A) (A) (A)
                 (A) (A) (A) (A) (A) (A) (A) (A) (A) (A) (A) (A)
                 (A) (A) (A) (A) (A) (A) (A) (A) (A) (A) (A) (A)
                 (A) (A) (A) (A) (A) (A) (A) (A) (A) (A) (A) (A)
                 (A) (A) (A) (A) (A) (A) (A) (A) (A) (A) (A) (A)
                 (A) (A) (A) (A) (A) (A) (A) (A) (A) (A) (A) (A)
                 (A) (A) (A) (A) (A) (A) (A) (A) (A) (A) (A)
 Beta  Orbitals:
       Occupied  (A) (A) (A) (A) (A) (A) (A) (A) (A) (A) (A) (A)
                 (A) (A) (A) (A) (A) (A) (A) (A) (A) (A) (A) (A)
                 (A) (A) (A) (A) (A) (A) (A) (A) (A) (A) (A) (A)
                 (A) (A) (A) (A) (A) (A) (A) (A) (A) (A)
       Virtual   (A) (A) (A) (A) (A) (A) (A) (A) (A) (A) (A) (A)
                 (A) (A) (A) (A) (A) (A) (A) (A) (A) (A) (A) (A)
                 (A) (A) (A) (A) (A) (A) (A) (A) (A) (A) (A) (A)
                 (A) (A) (A) (A) (A) (A) (A) (A) (A) (A) (A) (A)
                 (A) (A) (A) (A) (A) (A) (A) (A) (A) (A) (A) (A)
                 (A) (A) (A) (A) (A) (A) (A) (A) (A) (A) (A) (A)
                 (A) (A) (A) (A) (A) (A) (A) (A) (A) (A) (A) (A)
                 (A) (A) (A) (A) (A) (A) (A) (A) (A) (A) (A) (A)
                 (A) (A) (A) (A) (A) (A) (A) (A) (A) (A) (A) (A)
                 (A) (A) (A) (A) (A) (A) (A) (A) (A) (A) (A) (A)
                 (A) (A) (A) (A) (A) (A) (A) (A) (A) (A) (A) (A)
                 (A) (A) (A) (A) (A) (A) (A) (A) (A) (A) (A) (A)
                 (A) (A) (A) (A) (A) (A) (A) (A) (A) (A) (A) (A)
                 (A) (A) (A) (A) (A) (A) (A) (A) (A) (A) (A) (A)
                 (A) (A) (A) (A) (A) (A) (A) (A) (A) (A) (A) (A)
                 (A) (A) (A) (A) (A) (A) (A) (A) (A) (A) (A) (A)
                 (A) (A) (A) (A) (A) (A) (A) (A) (A) (A) (A) (A)
                 (A) (A) (A) (A) (A) (A) (A) (A) (A) (A) (A) (A)
                 (A) (A) (A) (A) (A) (A) (A) (A) (A) (A) (A) (A)
                 (A) (A) (A) (A) (A) (A) (A) (A) (A) (A) (A) (A)
                 (A) (A) (A) (A) (A) (A) (A) (A) (A) (A) (A) (A)
                 (A) (A) (A) (A) (A) (A) (A) (A) (A) (A) (A) (A)
                 (A) (A) (A) (A) (A) (A) (A) (A) (A) (A) (A) (A)
                 (A) (A) (A) (A) (A) (A) (A) (A) (A) (A) (A) (A)
                 (A) (A) (A) (A) (A) (A) (A) (A) (A) (A) (A) (A)
                 (A) (A) (A) (A) (A) (A) (A) (A) (A) (A) (A) (A)
                 (A) (A) (A) (A) (A) (A) (A) (A) (A) (A) (A) (A)
                 (A) (A) (A) (A) (A) (A) (A) (A) (A) (A) (A) (A)
                 (A) (A) (A) (A) (A) (A) (A) (A) (A) (A) (A) (A)
                 (A) (A) (A) (A) (A) (A) (A) (A) (A) (A) (A) (A)
                 (A) (A) (A) (A) (A) (A) (A) (A) (A) (A) (A) (A)
                 (A) (A) (A) (A) (A) (A) (A) (A) (A) (A) (A) (A)
                 (A) (A) (A) (A) (A) (A) (A) (A) (A) (A) (A) (A)
                 (A) (A) (A) (A) (A) (A) (A) (A) (A) (A) (A) (A)
                 (A) (A) (A) (A) (A) (A) (A) (A) (A) (A) (A) (A)
                 (A) (A) (A) (A) (A) (A) (A) (A) (A) (A) (A) (A)
                 (A) (A) (A) (A) (A) (A) (A) (A) (A) (A) (A) (A)
                 (A) (A) (A) (A) (A) (A) (A) (A) (A) (A) (A) (A)
                 (A) (A) (A) (A) (A) (A) (A) (A) (A) (A) (A) (A)
                 (A) (A) (A) (A) (A) (A) (A) (A) (A) (A) (A) (A)
                 (A) (A) (A) (A) (A) (A) (A) (A) (A) (A) (A) (A)
 The electronic state is 2-A.
 Alpha  occ. eigenvalues --  -19.68750 -19.67645 -10.56629 -10.56293 -10.56001
 Alpha  occ. eigenvalues --  -10.55403 -10.55358 -10.55130 -10.55059 -10.54946
 Alpha  occ. eigenvalues --  -10.54889 -10.54826 -10.54613  -1.28393  -1.03211
 Alpha  occ. eigenvalues --   -0.99527  -0.93979  -0.90272  -0.84857  -0.84520
 Alpha  occ. eigenvalues --   -0.79625  -0.71816  -0.70865  -0.68201  -0.64217
 Alpha  occ. eigenvalues --   -0.60608  -0.59595  -0.58592  -0.57858  -0.53670
 Alpha  occ. eigenvalues --   -0.53012  -0.51573  -0.50182  -0.49161  -0.47969
 Alpha  occ. eigenvalues --   -0.47761  -0.46453  -0.44490  -0.42402  -0.40255
 Alpha  occ. eigenvalues --   -0.40203  -0.40049  -0.38217  -0.36870  -0.31064
 Alpha  occ. eigenvalues --   -0.30241  -0.24855
 Alpha virt. eigenvalues --   -0.02304   0.00048   0.00764   0.01649   0.01936
 Alpha virt. eigenvalues --    0.03207   0.03362   0.03686   0.04232   0.05460
 Alpha virt. eigenvalues --    0.05895   0.05983   0.07117   0.07541   0.08631
 Alpha virt. eigenvalues --    0.08882   0.08982   0.09919   0.10374   0.11371
 Alpha virt. eigenvalues --    0.11823   0.12773   0.13367   0.13692   0.14166
 Alpha virt. eigenvalues --    0.14265   0.15300   0.15672   0.16729   0.16826
 Alpha virt. eigenvalues --    0.17452   0.17580   0.17902   0.18319   0.18924
 Alpha virt. eigenvalues --    0.19925   0.20102   0.20664   0.21047   0.21494
 Alpha virt. eigenvalues --    0.21710   0.22212   0.22461   0.23395   0.23500
 Alpha virt. eigenvalues --    0.24016   0.24270   0.24936   0.25139   0.25260
 Alpha virt. eigenvalues --    0.25594   0.26126   0.27018   0.27675   0.27944
 Alpha virt. eigenvalues --    0.28665   0.29091   0.30333   0.30676   0.31598
 Alpha virt. eigenvalues --    0.32060   0.32469   0.32991   0.33467   0.33974
 Alpha virt. eigenvalues --    0.34188   0.35756   0.36354   0.37011   0.37922
 Alpha virt. eigenvalues --    0.39278   0.39623   0.41643   0.45000   0.46810
 Alpha virt. eigenvalues --    0.47531   0.48364   0.50456   0.50535   0.51886
 Alpha virt. eigenvalues --    0.53032   0.53520   0.54188   0.54739   0.55218
 Alpha virt. eigenvalues --    0.55714   0.56579   0.56725   0.57468   0.57645
 Alpha virt. eigenvalues --    0.58121   0.58637   0.59939   0.60963   0.61014
 Alpha virt. eigenvalues --    0.61684   0.63983   0.64354   0.64912   0.66123
 Alpha virt. eigenvalues --    0.66772   0.66982   0.67300   0.67485   0.67880
 Alpha virt. eigenvalues --    0.68318   0.68632   0.68973   0.69646   0.70745
 Alpha virt. eigenvalues --    0.71556   0.71859   0.72743   0.73085   0.73998
 Alpha virt. eigenvalues --    0.74494   0.74930   0.75181   0.76364   0.76828
 Alpha virt. eigenvalues --    0.77443   0.78423   0.79286   0.80769   0.81307
 Alpha virt. eigenvalues --    0.82096   0.83212   0.84091   0.85628   0.85803
 Alpha virt. eigenvalues --    0.86869   0.87126   0.87778   0.89541   0.90339
 Alpha virt. eigenvalues --    0.91625   0.93324   0.94032   0.94473   0.96039
 Alpha virt. eigenvalues --    0.97829   0.99301   1.00068   1.00661   1.01376
 Alpha virt. eigenvalues --    1.02225   1.04907   1.05185   1.06988   1.08058
 Alpha virt. eigenvalues --    1.08442   1.09658   1.10145   1.11212   1.12860
 Alpha virt. eigenvalues --    1.13331   1.14729   1.15012   1.15847   1.16979
 Alpha virt. eigenvalues --    1.18036   1.18376   1.19105   1.20012   1.20398
 Alpha virt. eigenvalues --    1.21337   1.23636   1.24734   1.26108   1.27611
 Alpha virt. eigenvalues --    1.27818   1.28546   1.29027   1.29153   1.30677
 Alpha virt. eigenvalues --    1.32021   1.32999   1.33673   1.34093   1.35109
 Alpha virt. eigenvalues --    1.35505   1.36933   1.37146   1.37768   1.39493
 Alpha virt. eigenvalues --    1.40031   1.40088   1.41723   1.43210   1.43702
 Alpha virt. eigenvalues --    1.44277   1.45202   1.46970   1.47562   1.49430
 Alpha virt. eigenvalues --    1.50686   1.51886   1.51971   1.53028   1.54216
 Alpha virt. eigenvalues --    1.55833   1.57406   1.58218   1.61449   1.63059
 Alpha virt. eigenvalues --    1.66391   1.68610   1.69430   1.69899   1.71353
 Alpha virt. eigenvalues --    1.74240   1.75555   1.75652   1.77129   1.77239
 Alpha virt. eigenvalues --    1.78001   1.80045   1.81528   1.85549   1.87191
 Alpha virt. eigenvalues --    1.90690   1.93481   1.94288   1.95683   1.99871
 Alpha virt. eigenvalues --    2.02259   2.04578   2.07193   2.08481   2.14506
 Alpha virt. eigenvalues --    2.16679   2.25094   2.27956   2.29611   2.33663
 Alpha virt. eigenvalues --    2.38589   2.42285   2.43936   2.47482   2.49953
 Alpha virt. eigenvalues --    2.52374   2.54921   2.57279   2.59099   2.61939
 Alpha virt. eigenvalues --    2.63765   2.64213   2.66319   2.67951   2.70519
 Alpha virt. eigenvalues --    2.70878   2.73399   2.74880   2.75864   2.76232
 Alpha virt. eigenvalues --    2.76923   2.77094   2.78419   2.79087   2.81021
 Alpha virt. eigenvalues --    2.81404   2.82079   2.82751   2.83092   2.83846
 Alpha virt. eigenvalues --    2.84625   2.85798   2.85821   2.86742   2.87204
 Alpha virt. eigenvalues --    2.88218   2.88937   2.89069   2.89318   2.90342
 Alpha virt. eigenvalues --    2.92173   2.92485   2.93982   2.95662   2.97767
 Alpha virt. eigenvalues --    2.98779   3.00417   3.02007   3.04773   3.05395
 Alpha virt. eigenvalues --    3.06956   3.07580   3.10140   3.11445   3.11923
 Alpha virt. eigenvalues --    3.13166   3.13236   3.13610   3.14053   3.15618
 Alpha virt. eigenvalues --    3.16164   3.17006   3.18060   3.19174   3.19640
 Alpha virt. eigenvalues --    3.19837   3.21681   3.22533   3.22862   3.23791
 Alpha virt. eigenvalues --    3.23870   3.26046   3.26924   3.29394   3.30134
 Alpha virt. eigenvalues --    3.30766   3.32263   3.33196   3.33855   3.34967
 Alpha virt. eigenvalues --    3.36399   3.37657   3.38356   3.40177   3.41244
 Alpha virt. eigenvalues --    3.42096   3.43545   3.43971   3.45023   3.46034
 Alpha virt. eigenvalues --    3.47874   3.49210   3.50095   3.50857   3.52382
 Alpha virt. eigenvalues --    3.52524   3.53473   3.54714   3.55479   3.56310
 Alpha virt. eigenvalues --    3.57738   3.58342   3.63556   3.64927   3.65921
 Alpha virt. eigenvalues --    3.67467   3.68126   3.68572   3.69193   3.72118
 Alpha virt. eigenvalues --    3.72518   3.73531   3.74329   3.75543   3.76260
 Alpha virt. eigenvalues --    3.76644   3.78522   3.78974   3.80504   3.83427
 Alpha virt. eigenvalues --    3.83797   3.84362   3.85655   3.86432   3.88799
 Alpha virt. eigenvalues --    3.90493   3.92302   3.94511   3.95088   3.96233
 Alpha virt. eigenvalues --    3.98123   3.99969   4.00565   4.03103   4.04765
 Alpha virt. eigenvalues --    4.06961   4.07665   4.09039   4.10233   4.10959
 Alpha virt. eigenvalues --    4.13448   4.16025   4.17198   4.18519   4.19279
 Alpha virt. eigenvalues --    4.20587   4.22823   4.24415   4.24888   4.26127
 Alpha virt. eigenvalues --    4.28275   4.30445   4.32137   4.32521   4.33575
 Alpha virt. eigenvalues --    4.35462   4.36455   4.37662   4.38465   4.38991
 Alpha virt. eigenvalues --    4.40034   4.41545   4.42059   4.43582   4.44013
 Alpha virt. eigenvalues --    4.46513   4.47202   4.48124   4.50362   4.51601
 Alpha virt. eigenvalues --    4.52929   4.53984   4.57113   4.57932   4.60783
 Alpha virt. eigenvalues --    4.61579   4.62054   4.63139   4.64454   4.67343
 Alpha virt. eigenvalues --    4.68140   4.70215   4.73591   4.74561   4.77499
 Alpha virt. eigenvalues --    4.78422   4.79104   4.81357   4.88595   4.94483
 Alpha virt. eigenvalues --    4.95289   4.96742   4.97297   5.00557   5.07952
 Alpha virt. eigenvalues --    5.11556   5.13259   5.17218   5.18467   5.19679
 Alpha virt. eigenvalues --    5.21778   5.22075   5.26573   5.29124   5.31464
 Alpha virt. eigenvalues --    5.34915   5.37390   5.42146   5.44547   5.50146
 Alpha virt. eigenvalues --    5.53422   5.54563   5.55300   5.59454   5.62497
 Alpha virt. eigenvalues --    5.68565   5.71080   5.71997   5.73210   5.76091
 Alpha virt. eigenvalues --    5.79457   5.83615   5.85136   5.94053   6.05627
 Alpha virt. eigenvalues --    6.08829   6.14483   6.18949   6.42410   6.54642
 Alpha virt. eigenvalues --    6.84568   6.89053   6.90551   7.02503   7.12275
 Alpha virt. eigenvalues --    7.16801   7.29849   7.33111   7.46731   7.53810
 Alpha virt. eigenvalues --    7.66303   7.81337   8.02310  23.93108  24.20959
 Alpha virt. eigenvalues --   24.52701  24.60012  24.64781  24.67973  24.73662
 Alpha virt. eigenvalues --   24.79822  24.83113  25.12522  25.22305  50.03949
 Alpha virt. eigenvalues --   50.14001
  Beta  occ. eigenvalues --  -19.68671 -19.66763 -10.56719 -10.56248 -10.56028
  Beta  occ. eigenvalues --  -10.55308 -10.55274 -10.55160 -10.55046 -10.54944
  Beta  occ. eigenvalues --  -10.54901 -10.54828 -10.54027  -1.26695  -1.01189
  Beta  occ. eigenvalues --   -0.99317  -0.93805  -0.89751  -0.84767  -0.84026
  Beta  occ. eigenvalues --   -0.78306  -0.71666  -0.70770  -0.67424  -0.62483
  Beta  occ. eigenvalues --   -0.60199  -0.59392  -0.57720  -0.56477  -0.53313
  Beta  occ. eigenvalues --   -0.52212  -0.51125  -0.49912  -0.48891  -0.47523
  Beta  occ. eigenvalues --   -0.47437  -0.46089  -0.44250  -0.41187  -0.40154
  Beta  occ. eigenvalues --   -0.39789  -0.38701  -0.37104  -0.35506  -0.30669
  Beta  occ. eigenvalues --   -0.27993
  Beta virt. eigenvalues --   -0.07455  -0.01338   0.00342   0.00773   0.01678
  Beta virt. eigenvalues --    0.02016   0.03286   0.03406   0.03903   0.04525
  Beta virt. eigenvalues --    0.05509   0.05976   0.06042   0.07148   0.08044
  Beta virt. eigenvalues --    0.08721   0.08976   0.09082   0.09875   0.10427
  Beta virt. eigenvalues --    0.11421   0.11820   0.12908   0.13429   0.13815
  Beta virt. eigenvalues --    0.14281   0.14365   0.15159   0.15576   0.16762
  Beta virt. eigenvalues --    0.16892   0.17425   0.17622   0.18076   0.18347
  Beta virt. eigenvalues --    0.19026   0.19910   0.20153   0.20713   0.21324
  Beta virt. eigenvalues --    0.21428   0.21855   0.22202   0.22476   0.23420
  Beta virt. eigenvalues --    0.23548   0.24052   0.24233   0.24942   0.25221
  Beta virt. eigenvalues --    0.25374   0.25578   0.26249   0.27017   0.27769
  Beta virt. eigenvalues --    0.27936   0.28609   0.29053   0.30315   0.30716
  Beta virt. eigenvalues --    0.31628   0.32185   0.32659   0.33041   0.33515
  Beta virt. eigenvalues --    0.34223   0.34503   0.35871   0.36537   0.37106
  Beta virt. eigenvalues --    0.38075   0.39531   0.39772   0.41818   0.45281
  Beta virt. eigenvalues --    0.46922   0.47737   0.48842   0.50629   0.51009
  Beta virt. eigenvalues --    0.52319   0.53138   0.53607   0.54297   0.54919
  Beta virt. eigenvalues --    0.55350   0.55830   0.56761   0.56947   0.57587
  Beta virt. eigenvalues --    0.57730   0.58400   0.58724   0.60150   0.61046
  Beta virt. eigenvalues --    0.61268   0.61885   0.64099   0.64464   0.65050
  Beta virt. eigenvalues --    0.66395   0.66944   0.67113   0.67439   0.67585
  Beta virt. eigenvalues --    0.68151   0.68352   0.68846   0.69098   0.69761
  Beta virt. eigenvalues --    0.71066   0.71688   0.71944   0.72797   0.73130
  Beta virt. eigenvalues --    0.74055   0.74565   0.74967   0.75212   0.76417
  Beta virt. eigenvalues --    0.76903   0.77566   0.78574   0.79548   0.81060
  Beta virt. eigenvalues --    0.81583   0.82152   0.83600   0.84482   0.85731
  Beta virt. eigenvalues --    0.85886   0.86976   0.87243   0.88053   0.89531
  Beta virt. eigenvalues --    0.90405   0.91740   0.93641   0.94100   0.95312
  Beta virt. eigenvalues --    0.96313   0.97945   0.99411   1.00143   1.00884
  Beta virt. eigenvalues --    1.01624   1.02324   1.04934   1.05210   1.07005
  Beta virt. eigenvalues --    1.08113   1.08526   1.09692   1.10433   1.11301
  Beta virt. eigenvalues --    1.12912   1.13326   1.14864   1.15260   1.16000
  Beta virt. eigenvalues --    1.17080   1.18070   1.18634   1.19248   1.20230
  Beta virt. eigenvalues --    1.20395   1.21373   1.23719   1.24935   1.26304
  Beta virt. eigenvalues --    1.27695   1.27958   1.28641   1.29182   1.29314
  Beta virt. eigenvalues --    1.30962   1.32116   1.33164   1.33822   1.34280
  Beta virt. eigenvalues --    1.35175   1.35625   1.37132   1.37316   1.37847
  Beta virt. eigenvalues --    1.39619   1.40146   1.40215   1.41990   1.43326
  Beta virt. eigenvalues --    1.44015   1.44486   1.45738   1.47211   1.47931
  Beta virt. eigenvalues --    1.49672   1.50924   1.51933   1.52161   1.53125
  Beta virt. eigenvalues --    1.54481   1.56106   1.58017   1.58501   1.62025
  Beta virt. eigenvalues --    1.63534   1.66741   1.68700   1.69633   1.70226
  Beta virt. eigenvalues --    1.71907   1.74357   1.75658   1.75794   1.77294
  Beta virt. eigenvalues --    1.77496   1.78242   1.80264   1.81635   1.85696
  Beta virt. eigenvalues --    1.87315   1.90785   1.93643   1.94448   1.95853
  Beta virt. eigenvalues --    2.00217   2.02294   2.04615   2.07313   2.08743
  Beta virt. eigenvalues --    2.14741   2.17326   2.25397   2.28323   2.31087
  Beta virt. eigenvalues --    2.34043   2.39684   2.42452   2.44503   2.48003
  Beta virt. eigenvalues --    2.50431   2.52694   2.54976   2.57396   2.59896
  Beta virt. eigenvalues --    2.62280   2.64221   2.64622   2.66849   2.68262
  Beta virt. eigenvalues --    2.70808   2.71345   2.73543   2.75195   2.75950
  Beta virt. eigenvalues --    2.76490   2.77307   2.77587   2.78724   2.79470
  Beta virt. eigenvalues --    2.81271   2.81891   2.82329   2.83205   2.83321
  Beta virt. eigenvalues --    2.84017   2.85105   2.86014   2.86061   2.86947
  Beta virt. eigenvalues --    2.87625   2.88468   2.89091   2.89394   2.89668
  Beta virt. eigenvalues --    2.90798   2.92341   2.92977   2.94197   2.95935
  Beta virt. eigenvalues --    2.98001   2.99398   3.00644   3.02341   3.05284
  Beta virt. eigenvalues --    3.05666   3.07272   3.08595   3.10423   3.11936
  Beta virt. eigenvalues --    3.12470   3.13429   3.13579   3.13934   3.14677
  Beta virt. eigenvalues --    3.16261   3.16641   3.17552   3.18275   3.19702
  Beta virt. eigenvalues --    3.20372   3.20537   3.21924   3.22830   3.23293
  Beta virt. eigenvalues --    3.24300   3.24472   3.26360   3.27469   3.29937
  Beta virt. eigenvalues --    3.30843   3.31178   3.32660   3.33743   3.34108
  Beta virt. eigenvalues --    3.35521   3.36875   3.38222   3.38819   3.41027
  Beta virt. eigenvalues --    3.42029   3.42431   3.44188   3.44930   3.45744
  Beta virt. eigenvalues --    3.46649   3.48778   3.49743   3.50556   3.51552
  Beta virt. eigenvalues --    3.52803   3.53061   3.54149   3.55028   3.56158
  Beta virt. eigenvalues --    3.57422   3.58568   3.59513   3.64238   3.65455
  Beta virt. eigenvalues --    3.66640   3.68027   3.68574   3.69307   3.70201
  Beta virt. eigenvalues --    3.72734   3.73035   3.73831   3.74726   3.76203
  Beta virt. eigenvalues --    3.76675   3.76956   3.78838   3.79364   3.80855
  Beta virt. eigenvalues --    3.83668   3.84160   3.84652   3.85894   3.86972
  Beta virt. eigenvalues --    3.90040   3.91158   3.92827   3.94889   3.95321
  Beta virt. eigenvalues --    3.96922   3.98655   4.00659   4.01385   4.03841
  Beta virt. eigenvalues --    4.05303   4.08080   4.08380   4.09448   4.10800
  Beta virt. eigenvalues --    4.11458   4.14287   4.16362   4.17316   4.19144
  Beta virt. eigenvalues --    4.19838   4.21046   4.23442   4.25066   4.25755
  Beta virt. eigenvalues --    4.27023   4.29234   4.30894   4.32714   4.32806
  Beta virt. eigenvalues --    4.34370   4.35929   4.37066   4.38106   4.38827
  Beta virt. eigenvalues --    4.39412   4.40423   4.42156   4.42682   4.44136
  Beta virt. eigenvalues --    4.44488   4.47116   4.47812   4.48986   4.50973
  Beta virt. eigenvalues --    4.51819   4.53472   4.54420   4.57694   4.58397
  Beta virt. eigenvalues --    4.61122   4.62000   4.62330   4.63629   4.64917
  Beta virt. eigenvalues --    4.67729   4.68760   4.70654   4.73875   4.75069
  Beta virt. eigenvalues --    4.77956   4.78938   4.79499   4.82004   4.89476
  Beta virt. eigenvalues --    4.95020   4.95655   4.97178   4.97693   5.00866
  Beta virt. eigenvalues --    5.08435   5.11804   5.13882   5.17477   5.19248
  Beta virt. eigenvalues --    5.20031   5.21997   5.22375   5.26940   5.29738
  Beta virt. eigenvalues --    5.32143   5.35884   5.37757   5.42534   5.44966
  Beta virt. eigenvalues --    5.51516   5.53753   5.54886   5.57010   5.61161
  Beta virt. eigenvalues --    5.63686   5.69438   5.71273   5.72600   5.73723
  Beta virt. eigenvalues --    5.77166   5.80121   5.84329   5.85870   5.94469
  Beta virt. eigenvalues --    6.05983   6.09044   6.14720   6.19939   6.42774
  Beta virt. eigenvalues --    6.54865   6.84962   6.89508   6.90632   7.02940
  Beta virt. eigenvalues --    7.12733   7.19486   7.30421   7.35488   7.47036
  Beta virt. eigenvalues --    7.55322   7.66628   7.83506   8.02346  23.93157
  Beta virt. eigenvalues --   24.21024  24.52906  24.60143  24.65022  24.68480
  Beta virt. eigenvalues --   24.73790  24.80008  24.83293  25.12635  25.22402
  Beta virt. eigenvalues --   50.03887  50.13360
          Condensed to atoms (all electrons):
               1          2          3          4          5          6
     1  C    8.512083  -0.295188  -0.547614   0.354493  -0.596007   0.024631
     2  C   -0.295188   6.886134  -0.553793   0.044668  -0.459595   0.311964
     3  C   -0.547614  -0.553793   8.109096  -0.073292   1.631955   0.023976
     4  H    0.354493   0.044668  -0.073292   0.476920   0.003356  -0.006475
     5  C   -0.596007  -0.459595   1.631955   0.003356   9.712957   0.042776
     6  H    0.024631   0.311964   0.023976  -0.006475   0.042776   0.480167
     7  C    1.349337  -0.476285  -0.326695  -0.010974  -1.384051   0.020554
     8  H    0.017440   0.040011  -0.032166  -0.000110   0.339679  -0.007178
     9  C   -2.168326   1.709272  -0.720603   0.035274  -3.373088  -0.058554
    10  C   -0.426077   0.166004  -0.395071  -0.000061   0.026303   0.000702
    11  C   -0.204661   0.145462  -0.216668  -0.000187   0.209985  -0.000778
    12  H    0.005363   0.003091   0.018532   0.000002   0.001973  -0.000003
    13  C    0.399649  -0.496463  -0.195079   0.002901   0.314664   0.006748
    14  C    0.116541  -0.280901  -0.186190  -0.000848  -0.485628   0.000701
    15  H    0.008673   0.009842  -0.006538  -0.000003   0.059093  -0.000011
    16  H   -0.000033  -0.001304   0.003428  -0.000001   0.005086   0.000000
    17  H    0.000309  -0.001322   0.008055   0.000000   0.007940  -0.000001
    18  C   -0.255803  -0.358175  -0.661419   0.013241  -0.021262   0.007455
    19  H    0.105797  -0.019920  -0.029332  -0.001728   0.002742   0.000031
    20  H    0.009584   0.027213  -0.064082   0.001568   0.007509  -0.000035
    21  H   -0.069506   0.002225  -0.033728   0.000053   0.009503   0.000006
    22  O   -0.100057  -0.005476   0.139693  -0.000439   0.015873  -0.000004
    23  O   -0.074906   0.014232  -0.032569   0.000041   0.003911  -0.000004
    24  H    0.028265   0.006937  -0.015602   0.000092  -0.003557  -0.000007
               7          8          9         10         11         12
     1  C    1.349337   0.017440  -2.168326  -0.426077  -0.204661   0.005363
     2  C   -0.476285   0.040011   1.709272   0.166004   0.145462   0.003091
     3  C   -0.326695  -0.032166  -0.720603  -0.395071  -0.216668   0.018532
     4  H   -0.010974  -0.000110   0.035274  -0.000061  -0.000187   0.000002
     5  C   -1.384051   0.339679  -3.373088   0.026303   0.209985   0.001973
     6  H    0.020554  -0.007178  -0.058554   0.000702  -0.000778  -0.000003
     7  C    8.530453  -0.064329  -0.702225   0.150651   0.272425  -0.014110
     8  H   -0.064329   0.476460   0.005705   0.007656   0.000945   0.000015
     9  C   -0.702225   0.005705  14.551972  -1.439633  -0.693829  -0.000656
    10  C    0.150651   0.007656  -1.439633   7.341199   0.027871   0.340163
    11  C    0.272425   0.000945  -0.693829   0.027871   7.005196   0.015053
    12  H   -0.014110   0.000015  -0.000656   0.340163   0.015053   0.476824
    13  C   -0.243603   0.047941  -2.072246   0.800083  -0.663149  -0.031594
    14  C   -0.569239   0.006667   0.665034  -0.443334   0.318324   0.007519
    15  H   -0.122415   0.002864  -0.031531  -0.006339   0.009481   0.000043
    16  H   -0.008273  -0.000004   0.037741  -0.043007   0.362570  -0.007221
    17  H    0.028761  -0.000013  -0.023737   0.022774   0.016856  -0.000095
    18  C   -0.541432  -0.000880  -0.368936   0.056092  -0.152437   0.024228
    19  H    0.058484   0.000006  -0.120119   0.003427  -0.006406  -0.000545
    20  H   -0.018381  -0.000001   0.014972   0.006797   0.007549   0.000589
    21  H   -0.030313  -0.000004   0.037613   0.040072   0.032551  -0.006281
    22  O   -0.027797  -0.000007   0.024098   0.015968   0.030460   0.002293
    23  O   -0.061538  -0.000005   0.176189  -0.007867  -0.005708  -0.004533
    24  H    0.000719   0.000004   0.021045  -0.019340  -0.005882   0.000899
              13         14         15         16         17         18
     1  C    0.399649   0.116541   0.008673  -0.000033   0.000309  -0.255803
     2  C   -0.496463  -0.280901   0.009842  -0.001304  -0.001322  -0.358175
     3  C   -0.195079  -0.186190  -0.006538   0.003428   0.008055  -0.661419
     4  H    0.002901  -0.000848  -0.000003  -0.000001   0.000000   0.013241
     5  C    0.314664  -0.485628   0.059093   0.005086   0.007940  -0.021262
     6  H    0.006748   0.000701  -0.000011   0.000000  -0.000001   0.007455
     7  C   -0.243603  -0.569239  -0.122415  -0.008273   0.028761  -0.541432
     8  H    0.047941   0.006667   0.002864  -0.000004  -0.000013  -0.000880
     9  C   -2.072246   0.665034  -0.031531   0.037741  -0.023737  -0.368936
    10  C    0.800083  -0.443334  -0.006339  -0.043007   0.022774   0.056092
    11  C   -0.663149   0.318324   0.009481   0.362570   0.016856  -0.152437
    12  H   -0.031594   0.007519   0.000043  -0.007221  -0.000095   0.024228
    13  C    7.018569   0.688235   0.439515   0.009496  -0.048596   0.035219
    14  C    0.688235   6.156563   0.010305   0.010866   0.369201   0.018390
    15  H    0.439515   0.010305   0.482040  -0.000109  -0.007083  -0.001544
    16  H    0.009496   0.010866  -0.000109   0.479934  -0.006171   0.003176
    17  H   -0.048596   0.369201  -0.007083  -0.006171   0.483032   0.000198
    18  C    0.035219   0.018390  -0.001544   0.003176   0.000198   8.329465
    19  H    0.007713   0.000762  -0.000001   0.000014   0.000000   0.085176
    20  H   -0.002696  -0.000123  -0.000000  -0.000003   0.000000   0.383078
    21  H   -0.006792  -0.001575   0.000000   0.000027  -0.000000   0.372876
    22  O   -0.007325   0.000082   0.000001  -0.000000  -0.000001  -0.200550
    23  O   -0.009213  -0.002662  -0.000003  -0.000031   0.000001   0.054093
    24  H    0.002809   0.000760   0.000001  -0.000017  -0.000000  -0.018254
              19         20         21         22         23         24
     1  C    0.105797   0.009584  -0.069506  -0.100057  -0.074906   0.028265
     2  C   -0.019920   0.027213   0.002225  -0.005476   0.014232   0.006937
     3  C   -0.029332  -0.064082  -0.033728   0.139693  -0.032569  -0.015602
     4  H   -0.001728   0.001568   0.000053  -0.000439   0.000041   0.000092
     5  C    0.002742   0.007509   0.009503   0.015873   0.003911  -0.003557
     6  H    0.000031  -0.000035   0.000006  -0.000004  -0.000004  -0.000007
     7  C    0.058484  -0.018381  -0.030313  -0.027797  -0.061538   0.000719
     8  H    0.000006  -0.000001  -0.000004  -0.000007  -0.000005   0.000004
     9  C   -0.120119   0.014972   0.037613   0.024098   0.176189   0.021045
    10  C    0.003427   0.006797   0.040072   0.015968  -0.007867  -0.019340
    11  C   -0.006406   0.007549   0.032551   0.030460  -0.005708  -0.005882
    12  H   -0.000545   0.000589  -0.006281   0.002293  -0.004533   0.000899
    13  C    0.007713  -0.002696  -0.006792  -0.007325  -0.009213   0.002809
    14  C    0.000762  -0.000123  -0.001575   0.000082  -0.002662   0.000760
    15  H   -0.000001  -0.000000   0.000000   0.000001  -0.000003   0.000001
    16  H    0.000014  -0.000003   0.000027  -0.000000  -0.000031  -0.000017
    17  H    0.000000   0.000000  -0.000000  -0.000001   0.000001  -0.000000
    18  C    0.085176   0.383078   0.372876  -0.200550   0.054093  -0.018254
    19  H    0.463224  -0.029884  -0.019724   0.026485  -0.073092   0.008190
    20  H   -0.029884   0.475357  -0.013609   0.009856   0.003742   0.000200
    21  H   -0.019724  -0.013609   0.483291   0.009138   0.004604  -0.000472
    22  O    0.026485   0.009856   0.009138   8.297231   0.127570  -0.043558
    23  O   -0.073092   0.003742   0.004604   0.127570   7.822541   0.235774
    24  H    0.008190   0.000200  -0.000472  -0.043558   0.235774   0.554021
          Atomic-Atomic Spin Densities.
               1          2          3          4          5          6
     1  C    0.244115  -0.011673  -0.014036   0.001674  -0.091360  -0.000441
     2  C   -0.011673  -0.071672  -0.004506   0.001191   0.036285   0.001227
     3  C   -0.014036  -0.004506  -0.164100  -0.003389   0.005109   0.001304
     4  H    0.001674   0.001191  -0.003389  -0.009923   0.000983  -0.000038
     5  C   -0.091360   0.036285   0.005109   0.000983   0.219982  -0.004420
     6  H   -0.000441   0.001227   0.001304  -0.000038  -0.004420   0.004329
     7  C   -0.031772  -0.009383   0.000411   0.000097  -0.030151  -0.000041
     8  H    0.000871  -0.001344  -0.001275   0.000005   0.000486  -0.000038
     9  C    0.087002  -0.025341   0.023949  -0.002557   0.047859   0.002285
    10  C   -0.037405   0.016233   0.033590  -0.000292   0.006190   0.000171
    11  C   -0.030630   0.009894  -0.020864  -0.000078   0.020417   0.000033
    12  H    0.001129  -0.000084   0.002174  -0.000001  -0.000417   0.000000
    13  C   -0.004420   0.011333   0.017587   0.000203  -0.030867  -0.001032
    14  C   -0.000723  -0.000122   0.012866  -0.000005  -0.005636  -0.000092
    15  H   -0.000054   0.000479  -0.000060  -0.000000   0.001061  -0.000001
    16  H   -0.000050  -0.000015  -0.000051   0.000000   0.000106   0.000000
    17  H    0.000016   0.000001  -0.000113   0.000000  -0.000219  -0.000000
    18  C    0.108735  -0.032787  -0.123138   0.002323  -0.011208  -0.000020
    19  H   -0.028700  -0.000095   0.001579  -0.000036  -0.001784  -0.000002
    20  H   -0.001521   0.002676   0.015971   0.000015   0.001336  -0.000002
    21  H   -0.003007   0.002267   0.010164  -0.000078   0.000233  -0.000001
    22  O    0.004908   0.009287   0.026873  -0.000160   0.001549  -0.000004
    23  O    0.004432  -0.004897  -0.015166   0.000094  -0.001765   0.000002
    24  H    0.000127   0.000066   0.002087  -0.000018   0.000378   0.000000
               7          8          9         10         11         12
     1  C   -0.031772   0.000871   0.087002  -0.037405  -0.030630   0.001129
     2  C   -0.009383  -0.001344  -0.025341   0.016233   0.009894  -0.000084
     3  C    0.000411  -0.001275   0.023949   0.033590  -0.020864   0.002174
     4  H    0.000097   0.000005  -0.002557  -0.000292  -0.000078  -0.000001
     5  C   -0.030151   0.000486   0.047859   0.006190   0.020417  -0.000417
     6  H   -0.000041  -0.000038   0.002285   0.000171   0.000033   0.000000
     7  C   -0.102528  -0.002346   0.072463  -0.059129   0.033825  -0.001850
     8  H   -0.002346  -0.010519  -0.003477   0.000012  -0.000133  -0.000000
     9  C    0.072463  -0.003477  -0.119823   0.084374  -0.068962   0.006274
    10  C   -0.059129   0.000012   0.084374   0.100883  -0.124895  -0.002233
    11  C    0.033825  -0.000133  -0.068962  -0.124895   0.311369  -0.008325
    12  H   -0.001850  -0.000000   0.006274  -0.002233  -0.008325   0.001282
    13  C   -0.021334   0.005779   0.068495  -0.001656  -0.043265  -0.000558
    14  C   -0.003682   0.001482   0.019265  -0.028185   0.020798  -0.001425
    15  H   -0.001749   0.000012  -0.001299   0.000242   0.000228   0.000000
    16  H    0.000100   0.000000  -0.000080  -0.001355   0.000770   0.000024
    17  H   -0.000160  -0.000000   0.000100   0.000240  -0.000887  -0.000003
    18  C    0.070409  -0.000069  -0.104882  -0.049301  -0.079699   0.005162
    19  H   -0.011861  -0.000000   0.028576  -0.005364  -0.001159  -0.000226
    20  H    0.000192   0.000000  -0.000543   0.006708   0.001731  -0.000023
    21  H   -0.000134   0.000000  -0.001429   0.012627   0.010499  -0.000096
    22  O   -0.009769  -0.000000   0.005248   0.028858   0.020828  -0.000363
    23  O    0.009503   0.000001  -0.009327  -0.012383  -0.023560   0.000557
    24  H   -0.000496  -0.000000  -0.000993   0.002297   0.003089  -0.000071
              13         14         15         16         17         18
     1  C   -0.004420  -0.000723  -0.000054  -0.000050   0.000016   0.108735
     2  C    0.011333  -0.000122   0.000479  -0.000015   0.000001  -0.032787
     3  C    0.017587   0.012866  -0.000060  -0.000051  -0.000113  -0.123138
     4  H    0.000203  -0.000005  -0.000000   0.000000   0.000000   0.002323
     5  C   -0.030867  -0.005636   0.001061   0.000106  -0.000219  -0.011208
     6  H   -0.001032  -0.000092  -0.000001   0.000000  -0.000000  -0.000020
     7  C   -0.021334  -0.003682  -0.001749   0.000100  -0.000160   0.070409
     8  H    0.005779   0.001482   0.000012   0.000000  -0.000000  -0.000069
     9  C    0.068495   0.019265  -0.001299  -0.000080   0.000100  -0.104882
    10  C   -0.001656  -0.028185   0.000242  -0.001355   0.000240  -0.049301
    11  C   -0.043265   0.020798   0.000228   0.000770  -0.000887  -0.079699
    12  H   -0.000558  -0.001425   0.000000   0.000024  -0.000003   0.005162
    13  C    0.025587  -0.008806   0.000879  -0.000138   0.000783   0.028623
    14  C   -0.008806  -0.040101   0.000224   0.000814   0.000087   0.005564
    15  H    0.000879   0.000224  -0.001215   0.000002  -0.000011  -0.000027
    16  H   -0.000138   0.000814   0.000002  -0.002419  -0.000002   0.000052
    17  H    0.000783   0.000087  -0.000011  -0.000002   0.001782  -0.000004
    18  C    0.028623   0.005564  -0.000027   0.000052  -0.000004   1.041818
    19  H   -0.001059   0.000017   0.000000  -0.000002   0.000000   0.078993
    20  H   -0.000164   0.000053   0.000000   0.000000  -0.000000  -0.040496
    21  H   -0.000755   0.000580   0.000000   0.000001  -0.000000  -0.052043
    22  O   -0.003675   0.000883   0.000001   0.000005  -0.000000  -0.316510
    23  O    0.004721  -0.000905  -0.000002  -0.000002   0.000001   0.110827
    24  H   -0.000617   0.000105   0.000000   0.000001  -0.000000  -0.010903
              19         20         21         22         23         24
     1  C   -0.028700  -0.001521  -0.003007   0.004908   0.004432   0.000127
     2  C   -0.000095   0.002676   0.002267   0.009287  -0.004897   0.000066
     3  C    0.001579   0.015971   0.010164   0.026873  -0.015166   0.002087
     4  H   -0.000036   0.000015  -0.000078  -0.000160   0.000094  -0.000018
     5  C   -0.001784   0.001336   0.000233   0.001549  -0.001765   0.000378
     6  H   -0.000002  -0.000002  -0.000001  -0.000004   0.000002   0.000000
     7  C   -0.011861   0.000192  -0.000134  -0.009769   0.009503  -0.000496
     8  H   -0.000000   0.000000   0.000000  -0.000000   0.000001  -0.000000
     9  C    0.028576  -0.000543  -0.001429   0.005248  -0.009327  -0.000993
    10  C   -0.005364   0.006708   0.012627   0.028858  -0.012383   0.002297
    11  C   -0.001159   0.001731   0.010499   0.020828  -0.023560   0.003089
    12  H   -0.000226  -0.000023  -0.000096  -0.000363   0.000557  -0.000071
    13  C   -0.001059  -0.000164  -0.000755  -0.003675   0.004721  -0.000617
    14  C    0.000017   0.000053   0.000580   0.000883  -0.000905   0.000105
    15  H    0.000000   0.000000   0.000000   0.000001  -0.000002   0.000000
    16  H   -0.000002   0.000000   0.000001   0.000005  -0.000002   0.000001
    17  H    0.000000  -0.000000  -0.000000  -0.000000   0.000001  -0.000000
    18  C    0.078993  -0.040496  -0.052043  -0.316510   0.110827  -0.010903
    19  H   -0.102036   0.002189   0.003383   0.026610   0.013942  -0.000294
    20  H    0.002189  -0.025592   0.006031   0.009701  -0.002602   0.000108
    21  H    0.003383   0.006031  -0.030216   0.015336  -0.006661   0.000349
    22  O    0.026610   0.009701   0.015336   0.540830  -0.097203   0.011258
    23  O    0.013942  -0.002602  -0.006661  -0.097203   0.084511  -0.010198
    24  H   -0.000294   0.000108   0.000349   0.011258  -0.010198   0.001620
 Mulliken charges and spin densities:
               1          2
     1  C   -0.193988   0.197217
     2  C   -0.418633  -0.070978
     3  C    0.155708  -0.193033
     4  H    0.161510  -0.009989
     5  C   -0.072114   0.164149
     6  H    0.153340   0.003222
     7  C    0.190274  -0.099385
     8  H    0.159305  -0.010555
     9  C    0.494569   0.107176
    10  C   -0.225032  -0.029774
    11  C   -0.505022   0.031024
    12  H    0.168451   0.000929
    13  C    0.003213   0.045643
    14  C   -0.399450  -0.026944
    15  H    0.153720  -0.001289
    16  H    0.153836  -0.002239
    17  H    0.149892   0.001608
    18  C   -0.801996   0.631419
    19  H    0.538700   0.002671
    20  H    0.180802  -0.024230
    21  H    0.190047  -0.032949
    22  O   -0.313535   0.274491
    23  O   -0.170568   0.043921
    24  H    0.246974  -0.002106
 Sum of Mulliken charges =  -0.00000   1.00000
 Mulliken charges and spin densities with hydrogens summed into heavy atoms:
               1          2
     1  C   -0.032479   0.187228
     2  C   -0.265293  -0.067756
     3  C    0.155708  -0.193033
     5  C    0.087190   0.153593
     7  C    0.190274  -0.099385
     9  C    0.494569   0.107176
    10  C   -0.056581  -0.028845
    11  C   -0.351186   0.028785
    13  C    0.156933   0.044355
    14  C   -0.249558  -0.025336
    18  C   -0.431147   0.574240
    22  O    0.225165   0.277162
    23  O    0.076406   0.041815
 Electronic spatial extent (au):  <R**2>=           2331.3029
 Charge=             -0.0000 electrons
 Dipole moment (field-independent basis, Debye):
    X=             -1.8669    Y=              1.4314    Z=             -0.1294  Tot=              2.3561
 Quadrupole moment (field-independent basis, Debye-Ang):
   XX=            -78.4067   YY=            -72.0761   ZZ=            -77.2125
   XY=              5.8792   XZ=             -6.1041   YZ=              3.5114
 Traceless Quadrupole moment (field-independent basis, Debye-Ang):
   XX=             -2.5083   YY=              3.8223   ZZ=             -1.3141
   XY=              5.8792   XZ=             -6.1041   YZ=              3.5114
 Octapole moment (field-independent basis, Debye-Ang**2):
  XXX=            -23.1853  YYY=              0.7000  ZZZ=             16.6667  XYY=             -4.7156
  XXY=             11.7751  XXZ=             -4.1777  XZZ=             18.7425  YZZ=             -6.4378
  YYZ=             -0.6487  XYZ=              0.2060
 Hexadecapole moment (field-independent basis, Debye-Ang**3):
 XXXX=          -1733.8668 YYYY=          -1057.4891 ZZZZ=           -267.9107 XXXY=             43.7219
 XXXZ=            -62.0577 YYYX=             15.4443 YYYZ=             27.4410 ZZZX=             26.9402
 ZZZY=            -14.1650 XXYY=           -458.3599 XXZZ=           -334.4876 YYZZ=           -251.3865
 XXYZ=             11.0207 YYXZ=            -14.5465 ZZXY=            -14.5081
 N-N= 7.578434145349D+02 E-N=-2.858529964855D+03  KE= 5.743446266075D+02
                          Isotropic Fermi Contact Couplings
        Atom                 a.u.       MegaHertz       Gauss      10(-4) cm-1
     1  C(13)              0.02111      23.73210       8.46820       7.91618
     2  C(13)             -0.01423     -15.99879      -5.70877      -5.33662
     3  C(13)             -0.02961     -33.28422     -11.87664     -11.10242
     4  H(1)              -0.00241     -10.76331      -3.84062      -3.59025
     5  C(13)              0.01614      18.14731       6.47541       6.05329
     6  H(1)               0.00066       2.96730       1.05881       0.98979
     7  C(13)             -0.01015     -11.40768      -4.07055      -3.80519
     8  H(1)              -0.00221      -9.86367      -3.51960      -3.29017
     9  C(13)              0.01063      11.94874       4.26361       3.98567
    10  C(13)             -0.00590      -6.63498      -2.36753      -2.21319
    11  C(13)              0.00404       4.53881       1.61956       1.51399
    12  H(1)               0.00033       1.46476       0.52266       0.48859
    13  C(13)              0.00369       4.14306       1.47835       1.38198
    14  C(13)             -0.00377      -4.24151      -1.51347      -1.41481
    15  H(1)              -0.00037      -1.66422      -0.59384      -0.55512
    16  H(1)              -0.00045      -2.01101      -0.71758      -0.67080
    17  H(1)               0.00030       1.33856       0.47763       0.44650
    18  C(13)              0.19977     224.57841      80.13516      74.91129
    19  H(1)              -0.02332    -104.25653     -37.20132     -34.77624
    20  H(1)              -0.00764     -34.16433     -12.19068     -11.39599
    21  H(1)              -0.00756     -33.81378     -12.06560     -11.27906
    22  O(17)              0.18298    -110.92288     -39.58004     -36.99989
    23  O(17)              0.00224      -1.35642      -0.48400      -0.45245
    24  H(1)              -0.00070      -3.14912      -1.12369      -1.05043
 --------------------------------------------------------
       Center         ----  Spin Dipole Couplings  ----
                      3XX-RR        3YY-RR        3ZZ-RR
 --------------------------------------------------------
     1   Atom       -0.064575     -0.076890      0.141464
     2   Atom        0.023935      0.020014     -0.043949
     3   Atom        0.046026      0.040862     -0.086888
     4   Atom        0.004077      0.001343     -0.005420
     5   Atom       -0.053947     -0.063775      0.117722
     6   Atom        0.002847     -0.000818     -0.002029
     7   Atom        0.012992      0.013731     -0.026723
     8   Atom        0.004914     -0.005185      0.000271
     9   Atom       -0.021478     -0.033122      0.054601
    10   Atom        0.012054      0.010023     -0.022077
    11   Atom       -0.010502     -0.012654      0.023155
    12   Atom        0.001840      0.002215     -0.004055
    13   Atom       -0.007655     -0.010944      0.018599
    14   Atom        0.009623      0.010140     -0.019764
    15   Atom        0.002118     -0.001168     -0.000949
    16   Atom       -0.001216      0.002172     -0.000956
    17   Atom        0.000057      0.000602     -0.000659
    18   Atom       -0.145102     -0.223929      0.369031
    19   Atom       -0.044248     -0.107866      0.152114
    20   Atom        0.007412     -0.002745     -0.004667
    21   Atom       -0.036181      0.025182      0.010999
    22   Atom        0.235370     -0.671188      0.435818
    23   Atom       -0.085028     -0.026600      0.111628
    24   Atom       -0.002030     -0.007748      0.009778
 --------------------------------------------------------
                        XY            XZ            YZ
 --------------------------------------------------------
     1   Atom       -0.015366      0.066262     -0.040826
     2   Atom        0.002912     -0.022591      0.016177
     3   Atom       -0.004299     -0.045758      0.033850
     4   Atom        0.007280      0.000230     -0.002066
     5   Atom       -0.016498      0.055702     -0.044062
     6   Atom       -0.001040     -0.001805      0.000465
     7   Atom        0.001771     -0.012298      0.009247
     8   Atom       -0.009284     -0.003979      0.001877
     9   Atom       -0.006457      0.024364     -0.019096
    10   Atom        0.005875     -0.009312      0.005898
    11   Atom       -0.001017      0.012542     -0.007858
    12   Atom        0.007499      0.002338      0.000334
    13   Atom       -0.001784      0.008608     -0.006853
    14   Atom        0.002267     -0.008952      0.006489
    15   Atom       -0.000542     -0.000946      0.000131
    16   Atom        0.001483      0.000728      0.000398
    17   Atom       -0.000562     -0.000229      0.000487
    18   Atom       -0.161334      0.391964     -0.306266
    19   Atom       -0.093682      0.208827     -0.151678
    20   Atom        0.033915     -0.008938     -0.031336
    21   Atom        0.002997      0.019889      0.029693
    22   Atom       -0.407316      1.166459     -0.454638
    23   Atom       -0.105288      0.109340     -0.123144
    24   Atom       -0.002556     -0.011164     -0.001051
 --------------------------------------------------------


 ---------------------------------------------------------------------------------
              Anisotropic Spin Dipole Couplings in Principal Axis System
 ---------------------------------------------------------------------------------

       Atom             a.u.   MegaHertz   Gauss  10(-4) cm-1        Axes

              Baa    -0.0875   -11.744    -4.191    -3.917  0.6843  0.7259 -0.0686
     1 C(13)  Bbb    -0.0811   -10.886    -3.885    -3.631  0.6734 -0.6653 -0.3225
              Bcc     0.1686    22.630     8.075     7.549  0.2797 -0.1745  0.9441
 
              Baa    -0.0544    -7.295    -2.603    -2.433  0.2781 -0.2145  0.9363
     2 C(13)  Bbb     0.0231     3.106     1.108     1.036  0.2866  0.9489  0.1323
              Bcc     0.0312     4.189     1.495     1.397  0.9168 -0.2315 -0.3254
 
              Baa    -0.1077   -14.447    -5.155    -4.819  0.2739 -0.2062  0.9394
     3 C(13)  Bbb     0.0385     5.171     1.845     1.725  0.5670  0.8236  0.0154
              Bcc     0.0691     9.276     3.310     3.094  0.7769 -0.5284 -0.3425
 
              Baa    -0.0069    -3.671    -1.310    -1.224 -0.3567  0.5122  0.7813
     4 H(1)   Bbb    -0.0033    -1.773    -0.633    -0.591  0.5405 -0.5690  0.6198
              Bcc     0.0102     5.444     1.942     1.816  0.7620  0.6434 -0.0739
 
              Baa    -0.0762   -10.220    -3.647    -3.409  0.5253  0.8499  0.0422
     5 C(13)  Bbb    -0.0686    -9.207    -3.285    -3.071  0.8035 -0.4790 -0.3535
              Bcc     0.1448    19.428     6.932     6.480  0.2802 -0.2196  0.9345
 
              Baa    -0.0026    -1.405    -0.501    -0.469  0.2998 -0.0721  0.9513
     6 H(1)   Bbb    -0.0011    -0.583    -0.208    -0.194  0.2525  0.9676 -0.0063
              Bcc     0.0037     1.987     0.709     0.663  0.9200 -0.2421 -0.3082
 
              Baa    -0.0321    -4.313    -1.539    -1.439  0.2649 -0.2004  0.9432
     7 C(13)  Bbb     0.0152     2.034     0.726     0.678  0.5464  0.8372  0.0244
              Bcc     0.0170     2.279     0.813     0.760  0.7946 -0.5089 -0.3312
 
              Baa    -0.0107    -5.720    -2.041    -1.908  0.5179  0.8544  0.0416
     8 H(1)   Bbb    -0.0013    -0.714    -0.255    -0.238  0.2780 -0.2141  0.9364
              Bcc     0.0121     6.435     2.296     2.146  0.8090 -0.4734 -0.3484
 
              Baa    -0.0373    -5.005    -1.786    -1.670  0.1453  0.9757  0.1642
     9 C(13)  Bbb    -0.0285    -3.829    -1.366    -1.277  0.9498 -0.0911 -0.2993
              Bcc     0.0658     8.834     3.152     2.947  0.2770 -0.1995  0.9399
 
              Baa    -0.0259    -3.476    -1.240    -1.159  0.2624 -0.1980  0.9444
    10 C(13)  Bbb     0.0085     1.146     0.409     0.382 -0.5139  0.7997  0.3104
              Bcc     0.0174     2.330     0.831     0.777  0.8167  0.5668 -0.1081
 
              Baa    -0.0159    -2.133    -0.761    -0.712  0.6940 -0.6294 -0.3495
    11 C(13)  Bbb    -0.0129    -1.729    -0.617    -0.577  0.6530  0.7548 -0.0627
              Bcc     0.0288     3.862     1.378     1.288  0.3033 -0.1847  0.9348
 
              Baa    -0.0064    -3.433    -1.225    -1.145  0.6397 -0.5332 -0.5537
    12 H(1)   Bbb    -0.0033    -1.787    -0.638    -0.596  0.3156 -0.4746  0.8217
              Bcc     0.0098     5.221     1.863     1.741  0.7009  0.7003  0.1353
 
              Baa    -0.0125    -1.672    -0.597    -0.558 -0.0464  0.9727  0.2275
    13 C(13)  Bbb    -0.0102    -1.368    -0.488    -0.456  0.9593  0.1069 -0.2613
              Bcc     0.0227     3.041     1.085     1.014  0.2785 -0.2061  0.9381
 
              Baa    -0.0237    -3.176    -1.133    -1.059  0.2671 -0.1989  0.9429
    14 C(13)  Bbb     0.0113     1.519     0.542     0.507 -0.3918  0.8715  0.2948
              Bcc     0.0124     1.658     0.591     0.553  0.8804  0.4482 -0.1549
 
              Baa    -0.0013    -0.674    -0.241    -0.225  0.2474  0.8945  0.3724
    15 H(1)   Bbb    -0.0012    -0.644    -0.230    -0.215  0.1841 -0.4208  0.8883
              Bcc     0.0025     1.318     0.470     0.440  0.9512 -0.1512 -0.2688
 
              Baa    -0.0021    -1.099    -0.392    -0.367  0.8472 -0.2529 -0.4672
    16 H(1)   Bbb    -0.0008    -0.414    -0.148    -0.138  0.3859 -0.3113  0.8684
              Bcc     0.0028     1.513     0.540     0.505  0.3651  0.9160  0.1661
 
              Baa    -0.0008    -0.441    -0.157    -0.147  0.0543 -0.3026  0.9516
    17 H(1)   Bbb    -0.0003    -0.154    -0.055    -0.051  0.8659  0.4889  0.1061
              Bcc     0.0011     0.595     0.212     0.198 -0.4973  0.8181  0.2886
 
              Baa    -0.3586   -48.118   -17.170   -16.050  0.6974 -0.4440 -0.5626
    18 C(13)  Bbb    -0.3505   -47.039   -16.785   -15.691  0.5622  0.8258  0.0452
              Bcc     0.7091    95.157    33.954    31.741  0.4445 -0.3478  0.8255
 
              Baa    -0.1788   -95.418   -34.048   -31.828 -0.4688  0.6528  0.5950
    19 H(1)   Bbb    -0.1747   -93.224   -33.265   -31.096  0.7291  0.6663 -0.1566
              Bcc     0.3536   188.642    67.312    62.924  0.4987 -0.3604  0.7883
 
              Baa    -0.0430   -22.946    -8.188    -7.654 -0.4129  0.7500  0.5167
    20 H(1)   Bbb    -0.0079    -4.238    -1.512    -1.414  0.6836 -0.1197  0.7200
              Bcc     0.0509    27.184     9.700     9.068  0.6019  0.6505 -0.4633
 
              Baa    -0.0444   -23.697    -8.456    -7.904  0.9091  0.1297 -0.3958
[...]
 47083,-0.00034124,0.00003258,-0.00002711,0.00003542,-0.00124435,-0.000
 08778,0.00016167,0.00000546,-0.00007363,-0.00001667,-0.00275187,-0.003
 51966,0.00475149,-0.00044633,-0.02539880,-0.01005098,-0.06563615,-0.05
 268052,-0.01321433,-0.00029338,0.00142360,-0.00209991,-0.00128488,0.00
 103796,0.00476314,0.00837269,0.01961685,0.00739362,0.00023076,0.001020
 42,0.00038505,0.06298048,-0.00019696,-0.00017736,0.00031151,-0.0000442
 7,0.00007189,0.00000124,0.00028518,-0.00038016,-0.00046243,-0.00000260
 ,-0.00007465,-0.00001012,0.00017196,-0.00016162,0.00027776,-0.00002824
 ,0.00000320,-0.00004212,0.00023345,0.00045322,0.00054889,0.00000221,0.
 00001881,-0.00001446,-0.00364820,0.00196032,-0.00126971,-0.00096944,-0
 .00871899,-0.00636186,-0.05331044,-0.29046890,-0.09808894,0.00094821,-
 0.00018327,0.00195616,0.00143490,0.00149341,-0.00308965,-0.00458145,-0
 .00803311,-0.00341963,-0.00027010,-0.00050853,-0.00010444,0.05919938,0
 .30478870,-0.00016130,0.00022270,-0.00036979,0.00013790,-0.00004919,0.
 00002352,-0.00019784,0.00037175,0.00050347,-0.00001210,0.00006390,-0.0
 0001399,-0.00049137,0.00010940,-0.00058555,0.00003349,-0.00004327,0.00
 007535,0.00029736,0.00074277,-0.00069189,0.00002140,0.00002976,0.00004
 706,0.00479763,-0.00135937,0.00516366,0.00252937,0.00811749,0.00750367
 ,-0.01370522,-0.09871091,-0.08288075,-0.00230435,0.00171518,-0.0029630
 7,0.00495687,-0.00292406,0.00163307,-0.00504407,-0.01753561,-0.0022339
 1,-0.00027292,-0.00084891,-0.00030136,0.01064023,0.10871790,0.07666117
 ,0.00001412,-0.00000279,0.00005324,-0.00005863,-0.00002159,-0.00031735
 ,-0.00037519,0.00012016,-0.00028923,0.00001049,-0.00002852,0.00003668,
 -0.00021436,-0.00005028,0.00018044,-0.00002593,-0.00000349,-0.00000170
 ,0.00336221,-0.00178959,0.00232160,0.00002845,-0.00003732,0.00003415,0
 .00033921,0.00081622,-0.00022279,-0.00000630,0.00168883,0.00434569,-0.
 01222856,-0.01145073,0.00333347,-0.00070276,-0.00055258,0.00012373,-0.
 00099066,-0.00124390,0.00239921,-0.25726047,-0.11599783,0.06669056,-0.
 00057071,0.00087872,-0.00214884,-0.00000840,0.00087046,-0.00137012,0.2
 6861090,0.00017744,-0.00003016,-0.00016848,-0.00010621,-0.00057060,0.0
 0003684,0.00042291,-0.00002737,0.00025222,-0.00003213,0.00002190,-0.00
 002158,-0.00111434,0.00019372,0.00067951,-0.00012149,-0.00006859,0.000
 05123,-0.00142380,-0.00306002,-0.00538708,-0.00000049,-0.00000144,-0.0
 0006351,0.00033441,-0.00099783,-0.00033415,0.00140463,0.00031579,-0.00
 374802,0.01293892,0.01083689,-0.00388294,0.00068617,0.00032331,-0.0002
 2707,-0.02546085,-0.00831757,0.00817985,-0.11604537,-0.12059474,0.0266
 5698,0.00140379,0.00004293,0.00182500,0.00021784,-0.00004003,0.0014990
 1,0.12685433,0.12184257,0.00012882,-0.00005616,-0.00001915,-0.00035214
 ,0.00000960,-0.00034209,-0.00011011,0.00042159,-0.00066682,0.00003335,
 -0.00002500,0.00006676,-0.00037013,0.00005318,0.00036148,-0.00006018,-
 0.00001994,0.00000022,0.00251325,-0.00518477,0.00487565,0.00005389,-0.
 00004314,0.00006777,-0.00044130,-0.00060209,-0.00076815,0.00417488,-0.
 00392886,0.00156884,0.01572880,0.01039200,-0.00034829,0.00074860,0.000
 49761,-0.00020698,-0.01011776,-0.00588693,0.00731066,0.06694356,0.0265
 0358,-0.06638533,-0.00192680,0.00216741,-0.00286704,-0.00172344,0.0011
 0733,-0.00159205,-0.07513688,-0.02547457,0.05882976,0.00178031,0.05111
 445,0.02967720,0.02318933,-0.00405268,-0.01321231,-0.18242371,0.017901
 15,0.08575068,-0.00052730,-0.00062008,-0.00198862,-0.01065040,0.001730
 76,0.00676464,0.00084279,-0.00030552,-0.00057667,-0.00264887,-0.017145
 10,-0.00605498,-0.00009092,0.00014667,-0.00028490,-0.05032989,-0.01010
 203,0.02558543,0.00630403,0.01338767,0.00267576,-0.01014868,-0.0001580
 4,0.00582373,-0.00155242,-0.00011622,0.00060127,0.00420918,0.00649193,
 0.00095760,0.00208569,-0.00709268,-0.00498052,-0.00027493,-0.00011022,
 0.00019978,-0.00013770,-0.00007867,0.00011814,0.00000992,-0.00010122,-
 0.00006765,0.50791460,0.02975112,-0.04683649,-0.04425309,-0.01734577,-
 0.00369509,0.00611466,0.03143872,-0.11106505,-0.05000372,0.00235940,0.
 00020193,0.00029757,0.00666608,-0.00139348,-0.00436919,0.00065081,-0.0
 0051527,-0.00075224,-0.00305783,0.00466048,0.00278955,0.00021953,0.000
 14620,0.00028546,0.00551685,0.02500618,0.00711474,-0.00639218,-0.00877
 185,-0.00056954,0.00728808,0.00137651,-0.00349600,-0.00119451,-0.00086
 705,0.00042179,-0.00387917,-0.00341562,0.00052611,-0.00222328,0.004753
 94,0.00383463,-0.00039402,-0.00022518,0.00003900,0.00004494,-0.0000546
 9,-0.00011625,0.00000923,0.00007828,0.00003175,0.10841666,0.56491747,0
 .01798488,-0.05361737,-0.03046560,-0.01840999,-0.00216475,0.01393489,0
 .09383013,-0.04334386,-0.12179991,-0.00010898,0.00191545,-0.00137881,0
 .00826347,-0.00077307,-0.00598474,-0.00006749,-0.00009009,-0.00002424,
 0.00180996,0.01006085,0.00721196,-0.00011342,0.00022954,-0.00022898,0.
 03243523,0.01477230,-0.00548003,-0.00687461,-0.01127150,-0.00179853,0.
 00898052,0.00059009,-0.00498556,0.00006092,-0.00031753,-0.00041440,-0.
 00405885,-0.00535704,-0.00035076,-0.00234200,0.00628467,0.00425261,0.0
 0005098,-0.00010213,0.00004146,0.00017051,-0.00006456,0.00001960,-0.00
 001618,0.00007623,0.00004005,-0.19175251,0.18427978,0.28879003,-0.0002
 2522,0.00179989,0.00084641,0.00031012,-0.00000935,-0.00034972,-0.00106
 028,-0.00034391,-0.00176606,0.00002153,-0.00017496,0.00007599,-0.00020
 260,-0.00005826,-0.00003226,0.00004297,-0.00005829,-0.00002957,-0.0000
 6758,-0.00007346,0.00007299,0.00004294,-0.00004007,0.00001735,-0.00073
 426,-0.00056887,0.00040979,0.00020252,0.00004283,-0.00002098,-0.000179
 62,0.00002019,0.00012026,-0.00004761,-0.00004373,-0.00007110,0.0000523
 5,0.00012377,-0.00001315,0.00007068,-0.00007031,-0.00009696,0.00003960
 ,-0.00001054,-0.00000759,0.00002097,0.00002880,-0.00000502,0.00003291,
 0.00000341,-0.00000226,0.00013640,-0.00001694,-0.00036406,0.07905888,0
 .00037190,-0.00060722,-0.00059626,0.00018118,-0.00028232,-0.00035293,0
 .00036642,-0.00000897,0.00084805,-0.00008299,-0.00058232,0.00031842,-0
 .00007274,-0.00011192,0.00005815,-0.00000338,0.00000765,0.00000468,-0.
 00010022,0.00012145,0.00019654,-0.00005917,-0.00002743,0.00000493,0.00
 037395,0.00043567,-0.00015019,-0.00018444,-0.00012036,0.00022291,0.000
 02986,-0.00017108,0.00003390,-0.00006424,-0.00001498,-0.00023653,0.000
 05345,-0.00007592,-0.00009341,-0.00012272,-0.00004180,0.00003164,-0.00
 001440,0.00000248,0.00000743,-0.00004193,-0.00002366,-0.00002085,-0.00
 001238,-0.00000880,-0.00001514,0.00033075,-0.00011365,0.00081099,0.019
 96394,0.03012284,-0.00081064,0.00142315,0.00057628,0.00075961,0.000132
 69,-0.00070409,-0.00246678,0.00046492,-0.00138592,0.00008595,-0.000077
 36,0.00020116,-0.00023076,-0.00053748,-0.00049411,0.00007111,-0.000113
 98,-0.00001692,-0.00021854,0.00007909,0.00003549,0.00004258,-0.0000216
 6,0.00004268,-0.00031118,-0.00073818,0.00033218,0.00037577,0.00040504,
 -0.00005604,-0.00025880,0.00013586,0.00019452,-0.00003360,-0.00007590,
 0.00000313,0.00020262,0.00032095,-0.00000785,0.00005939,-0.00021267,-0
 .00014607,0.00003501,-0.00001406,0.00000087,0.00002536,0.00001674,0.00
 001724,0.00004169,0.00000218,0.00000044,0.00130296,-0.00109728,0.00149
 094,0.04874281,0.09888777,0.50619788,-0.00032152,-0.00134440,-0.003043
 18,-0.00004837,0.00040882,0.00026645,-0.01589359,-0.01271503,0.0047839
 6,0.00051064,0.00064123,0.00028240,0.00032456,-0.00016452,-0.00020631,
 -0.00000288,-0.00001559,0.00007839,-0.00077241,-0.00084318,0.00008825,
 0.00003252,0.00006055,0.00001620,0.00087723,0.00190883,0.00393007,0.00
 012776,0.00038707,-0.00005981,0.00010876,-0.00012145,-0.00002883,0.000
 04948,0.00004446,-0.00014596,-0.00024737,0.00032628,0.00013303,-0.0000
 0291,0.00005589,0.00003692,-0.00010729,-0.00004544,0.00001444,-0.00002
 662,-0.00002940,0.00001996,-0.00000989,-0.00000455,-0.00000966,-0.2333
 9647,-0.12814289,0.05931742,-0.00006794,-0.00012194,-0.00004883,0.2467
 0642,0.00271028,-0.00059886,0.00023884,-0.00045298,0.00022165,0.000318
 00,0.01032925,0.00956594,-0.00300480,0.00007925,-0.00060965,-0.0002383
 0,0.00024091,0.00003959,-0.00018882,-0.00005461,0.00003117,-0.00002724
 ,0.00055139,0.00057539,-0.00011788,-0.00001996,-0.00001087,0.00002137,
 0.00072818,-0.00040512,-0.00349838,-0.00007955,-0.00082310,-0.00021726
 ,0.00003944,0.00035531,0.00005011,-0.00000771,0.00039314,0.00034768,-0
 .00000168,-0.00029226,0.00000932,-0.00012101,0.00009928,0.00011666,0.0
 0005971,0.00003389,0.00000350,0.00001091,0.00000715,-0.00001931,-0.000
 02401,0.00002143,0.00003735,-0.13257336,-0.13656860,0.02208509,-0.0003
 6345,-0.00020823,0.00051975,0.13887717,0.13627879,-0.00084446,0.001760
 89,-0.00270073,-0.00046567,-0.00009858,0.00025986,0.01356830,0.0108519
 1,0.00058352,-0.00007898,-0.00071762,-0.00008612,0.00017081,-0.0000944
 1,-0.00005838,0.00005209,-0.00005493,0.00008500,0.00074071,0.00085547,
 0.00028252,-0.00003036,-0.00003615,0.00000726,0.00374966,-0.00390974,0
 .00208609,-0.00035249,-0.00067760,-0.00048394,0.00017373,0.00021087,0.
 00014912,-0.00017223,0.00031575,0.00003603,-0.00013664,-0.00018686,-0.
 00036856,-0.00007861,0.00009441,0.00011735,0.00005677,0.00006012,-0.00
 005016,0.00004207,0.00000501,0.00000945,-0.00001684,0.00002699,0.00000
 981,0.05988751,0.02020475,-0.05120135,0.00046541,0.00045114,-0.0007494
 2,-0.06680300,-0.02222273,0.04566338,-0.00233078,-0.00011451,0.0046832
 1,0.00097846,0.00120752,0.00001898,0.00911833,0.01936948,0.00714884,0.
 00015765,0.00036082,0.00001845,-0.00004347,0.00006110,0.00010092,-0.00
 033846,0.00021316,0.00005579,-0.00000451,-0.00016992,-0.00026720,0.000
 00995,-0.00004245,0.00001886,-0.00035692,-0.00038457,-0.00195702,-0.00
 109113,0.00027377,0.00066610,-0.00017873,-0.00020612,-0.00020798,-0.00
 308440,-0.00202127,0.00152353,0.00025741,0.00005367,-0.00007298,0.0001
 0530,-0.00017231,-0.00008703,0.00001009,0.00000497,-0.00000752,-0.0000
 2343,0.00000854,0.00000097,0.00004871,-0.00003507,-0.00000782,-0.05383
 662,-0.02995829,0.00159593,-0.00006931,-0.00039972,-0.00014138,0.00210
 632,-0.02009171,-0.00974838,0.04856105,0.00059187,0.00204078,-0.002505
 35,0.00010297,-0.00044721,-0.00028305,-0.00152308,-0.00613196,-0.00467
 207,0.00006973,0.00027597,0.00017687,-0.00022779,0.00007294,0.00015570
 ,0.00022703,-0.00012328,0.00005261,0.00025195,-0.00016164,-0.00006051,
 0.00001952,0.00003146,-0.00004610,-0.00073238,-0.00177753,0.00114844,-
 0.00079626,-0.00038715,0.00022988,-0.00023683,0.00022201,0.00045848,-0
 .00281294,0.00027319,0.00120901,0.00004564,0.00006101,-0.00005206,-0.0
 0002035,-0.00015025,-0.00008885,0.00002351,0.00001365,-0.00000377,-0.0
 0000253,-0.00000246,0.00000122,-0.00003524,0.00002867,-0.00000119,-0.0
 2758435,-0.28718041,-0.12280056,-0.00001319,-0.00015267,0.00003373,0.0
 0079407,-0.00810971,-0.00669422,0.03185966,0.30155131,0.00499984,-0.00
 203299,0.00235486,-0.00046172,-0.00079112,-0.00007652,-0.00357584,-0.0
 1529152,-0.00207154,-0.00015698,-0.00001003,-0.00007556,-0.00001719,-0
 .00007640,-0.00002538,0.00000939,0.00006111,-0.00046688,-0.00003051,0.
 00010853,-0.00021078,0.00005140,-0.00000367,0.00006528,-0.00213665,0.0
 0093088,-0.00173416,0.00014379,-0.00039661,-0.00035634,-0.00023144,0.0
 0047818,-0.00000032,0.00103829,0.00059761,0.00136481,-0.00008130,-0.00
 002121,0.00012669,-0.00003622,-0.00002163,0.00010342,-0.00000027,0.000
 00617,-0.00000488,0.00000153,0.00000290,-0.00001821,-0.00000583,0.0000
 0542,0.00007220,0.00253799,-0.12292820,-0.09061441,0.00009673,-0.00065
 465,-0.00030654,0.00122770,0.00593846,0.00603350,-0.00331113,0.1337972
 1,0.08575798,-0.00012034,-0.00102038,0.00022077,0.00013988,-0.00015961
 ,0.00030429,-0.00096531,0.00058337,0.00004581,-0.00002114,-0.00001246,
 -0.00003971,-0.00088235,-0.00068285,-0.00067485,-0.00000359,0.00004383
 ,-0.00000062,-0.00024139,0.00117090,0.00026798,0.00002632,-0.00002946,
 0.00001382,0.00054136,0.00033900,0.00020042,-0.00022597,-0.00033594,-0
 .00008893,0.00026243,0.00003716,-0.00008527,-0.00000372,-0.00001400,-0
 .00004004,0.00003287,-0.00010519,-0.00009763,-0.00012805,0.00015251,0.
 00015528,0.00001230,-0.00000471,0.00001048,-0.00000674,-0.00001582,-0.
 00001484,-0.00000752,-0.00000931,0.00000542,-0.00015426,-0.00002012,-0
 .00079520,-0.05317369,-0.01732778,-0.04918424,0.00003276,0.00003210,-0
 .00005169,0.00002654,0.00000598,-0.00002145,0.35701170,0.00083813,-0.0
 0025999,0.00058248,-0.00068609,0.00031406,0.00039837,0.00018745,-0.000
 20637,0.00078291,0.00007021,0.00044918,-0.00043988,0.00021231,0.000160
 61,-0.00002296,-0.00005359,0.00005861,-0.00000847,0.00017299,-0.000070
 48,-0.00007629,0.00004444,0.00002024,-0.00001158,-0.00010666,-0.000273
 94,0.00005036,0.00010998,0.00007558,-0.00016772,0.00005112,0.00009567,
 -0.00001611,0.00000461,-0.00001303,0.00011081,-0.00007292,0.00003157,0
 .00004410,0.00014328,0.00016510,-0.00002685,0.00002726,-0.00001780,-0.
 00000012,0.00003848,0.00002073,0.00002640,0.00002144,0.00000605,0.0000
 1420,0.00019221,-0.00005757,-0.00097717,-0.02845650,-0.02841279,-0.098
 62926,0.00005130,-0.00000686,-0.00008803,0.00014262,0.00004403,0.00028
 187,0.03379834,0.06100263,-0.00034476,-0.00091269,-0.00119465,-0.00004
 894,-0.00015261,0.00025538,-0.00062035,0.00092481,-0.00210093,-0.00004
 372,-0.00018476,0.00009263,-0.00011862,-0.00011441,0.00028283,-0.00004
 026,0.00008808,-0.00001398,-0.00006188,0.00019651,-0.00001695,-0.00009
 102,0.00004543,-0.00003804,0.00084749,0.00067645,-0.00018738,-0.000313
 65,-0.00036566,0.00003734,0.00024131,-0.00010048,-0.00014015,0.0000083
 7,0.00004205,-0.00001708,-0.00009461,-0.00019501,0.00000395,-0.0001012
 1,0.00012852,0.00015206,-0.00005960,0.00002414,-0.00000830,-0.00001946
 ,-0.00001159,-0.00001451,-0.00003724,-0.00000185,-0.00000746,-0.002118
 73,0.00117418,-0.00229694,-0.10449969,-0.10830058,-0.49688348,0.000169
 24,-0.00012369,0.00028884,0.00004222,-0.00004964,0.00003291,-0.0204153
 3,0.10315646,0.58009771,-0.00091381,0.00050823,-0.00014075,-0.00013180
 ,0.00001743,-0.00054054,-0.00000694,-0.00009748,-0.00162040,0.00005954
 ,0.00005757,0.00001173,0.00042863,0.00010953,-0.00023622,-0.00003591,0
 .00007615,-0.00004375,0.00023831,-0.00050204,-0.00035195,-0.00003814,0
 .00002383,0.00002868,-0.00088702,-0.00011926,-0.00073492,0.00044575,0.
 00092051,0.00015712,-0.00041011,-0.00002514,0.00030066,0.00000387,-0.0
 0001815,-0.00002602,0.00040394,0.00041687,-0.00002744,0.00011583,-0.00
 038961,-0.00017704,-0.00000656,-0.00000426,0.00003096,-0.00002920,-0.0
 0002741,0.00000253,-0.00001330,-0.00001625,-0.00000346,-0.00040600,0.0
 0027760,0.00071704,-0.02216715,-0.00414304,0.00163346,0.00004942,0.000
 15145,-0.00021578,-0.00003263,0.00000266,-0.00009882,-0.26666362,-0.04
 133360,0.11987702,0.37807152,0.00097653,-0.00120155,0.00010601,0.00098
 958,-0.00009470,0.00146978,-0.00051778,-0.00012744,0.00023596,-0.00003
 752,-0.00000079,0.00004612,-0.00118052,-0.00087371,0.00026631,-0.00003
 789,0.00007834,-0.00005624,-0.00004183,0.00025674,-0.00014396,0.000031
 83,0.00000814,0.00001296,0.00005991,0.00036466,-0.00007229,-0.00011989
 ,-0.00018945,-0.00002603,0.00030804,0.00020018,-0.00011950,0.00001730,
 -0.00000128,0.00009473,-0.00010561,-0.00010664,0.00008259,-0.00008150,
 0.00011391,0.00015737,-0.00001602,0.00000010,-0.00000111,0.00001680,0.
 00000447,0.00001429,0.00000529,0.00001183,0.00000863,-0.00007347,0.000
 11309,-0.00027379,0.00906316,0.00105482,0.00001768,0.00002235,-0.00005
 461,0.00004449,0.00004330,0.00001306,0.00010908,-0.00032597,-0.0477850
 5,-0.00085044,-0.13382938,0.51908419,-0.00017111,0.00115326,-0.0005259
 5,0.00019585,0.00002204,-0.00089460,0.00122068,-0.00061311,-0.00174952
 ,0.00000431,0.00007958,-0.00017242,0.00067260,0.00030211,0.00048732,-0
 .00006196,0.00018157,-0.00006086,0.00051549,-0.00106187,-0.00036891,-0
 .00013641,0.00008178,-0.00003256,-0.00136842,-0.00035029,-0.00090238,0
 .00039700,0.00129647,0.00009483,-0.00055839,-0.00005788,0.00036909,0.0
 0002664,0.00001418,0.00000351,0.00036555,0.00032283,-0.00007651,0.0000
 8383,-0.00055619,-0.00024100,-0.00007587,0.00002816,0.00001285,-0.0000
 4640,-0.00003899,0.00000821,-0.00004218,-0.00001616,-0.00001364,-0.001
 02624,0.00052678,0.00165392,0.05210569,0.01217508,-0.00769804,-0.00001
 649,0.00001382,0.00001590,-0.00005762,-0.00004270,-0.00003074,0.057616
 43,0.00754201,-0.07284836,-0.11591014,-0.04390441,0.09239471,0.0001424
 5,-0.00021402,-0.00125485,0.00025426,0.00078493,-0.00010280,-0.0003877
 7,0.00086994,0.00017834,-0.00009871,-0.00012447,0.00029774,-0.00010270
 ,0.00005881,0.00102885,0.00006068,-0.00017459,0.00011343,-0.00162771,-
 0.00055577,-0.00119433,-0.00012953,0.00015620,-0.00009582,-0.00044964,
 -0.00038163,-0.00142938,-0.00011997,-0.00005584,-0.00004912,0.00002880
 ,0.00006923,-0.00001154,0.00000173,0.00002827,0.00006803,-0.00008293,-
 0.00005575,0.00012423,0.00002725,-0.00003606,-0.00003631,-0.00006044,0
 .00000891,-0.00002643,0.00001323,0.00001990,0.00002328,0.00001579,0.00
 002722,-0.00000099,0.00010592,-0.00001402,-0.00031370,-0.00203661,0.00
 107963,0.00032644,-0.00002861,-0.00002000,0.00008808,0.00001059,-0.000
 00967,0.00005865,-0.03548846,0.03460320,0.00784340,-0.08807463,0.12483
 328,0.00626716,0.12802701,-0.00120648,-0.00018135,0.00139105,-0.000677
 20,-0.00095541,-0.00049294,0.00018097,0.00036646,0.00025502,0.00002959
 ,-0.00009073,0.00006960,0.00163011,0.00119245,-0.00036477,0.00010494,-
 0.00038071,0.00017263,-0.00010282,-0.00012546,0.00000512,0.00000359,-0
 .00004590,-0.00000755,-0.00022228,-0.00031947,-0.00037781,-0.00019823,
 -0.00021876,0.00001350,0.00001462,-0.00014773,-0.00010242,-0.00000358,
 0.00000129,-0.00003774,-0.00010600,-0.00030859,0.00003769,0.00001324,-
 0.00000983,-0.00000294,-0.00001588,0.00003338,-0.00002658,-0.00000164,
 0.00000553,-0.00000403,-0.00001441,-0.00000624,-0.00000642,0.00040139,
 -0.00049407,0.00004844,-0.00074416,-0.00078080,-0.00092174,-0.00002963
 ,0.00006514,-0.00010093,-0.00000268,-0.00000381,-0.00008938,-0.0160995
 7,0.01465983,0.00490678,0.17794379,-0.47086832,0.02290195,-0.16089769,
 0.45861310,0.00080348,0.00082971,-0.00155913,-0.00006093,0.00082888,0.
 00052896,-0.00054917,0.00000302,-0.00175843,-0.00007016,0.00002019,0.0
 0004166,-0.00098242,-0.00068142,0.00001390,0.00009622,-0.00032261,0.00
 014634,-0.00118002,0.00066749,-0.00079138,0.00035863,-0.00018590,0.000
 11063,-0.00101643,-0.00033604,-0.00203543,-0.00010259,-0.00043863,-0.0
 0020317,0.00034791,0.00013236,-0.00012823,-0.00002322,0.00000470,0.000
 03676,-0.00040462,-0.00026140,0.00014913,-0.00001973,0.00041131,0.0001
 3811,0.00010874,-0.00003743,0.00000243,0.00003951,0.00003305,-0.000000
 41,0.00004473,0.00003394,0.00001336,0.00018044,-0.00005523,-0.00041120
 ,0.00430498,-0.00363109,-0.00064433,-0.00000235,-0.00004153,0.00007105
 ,-0.00000774,0.00003692,0.00008060,0.01266906,-0.01252553,-0.00547540,
 -0.00263199,0.04278178,-0.00942486,-0.01190234,-0.02726653,0.02109907\
 \-0.00002339,0.00000063,0.00005902,0.00002260,-0.00001573,-0.00001265,
 0.00008795,-0.00000460,-0.00000633,0.,0.00000552,0.00000328,-0.0000128
 8,0.00003768,0.00003254,-0.00000733,-0.00002634,0.00004817,-0.00001594
 ,-0.00000931,-0.00005844,0.00000651,-0.00002087,0.00001874,-0.00002231
 ,0.00000126,0.00009971,0.00000398,-0.00000561,-0.00001332,-0.00001061,
 0.00001065,-0.00000215,-0.00000423,0.00002422,-0.00002903,-0.00001684,
 -0.00002033,0.00001791,0.00000958,-0.00000194,-0.00001036,0.00000832,-
 0.00001641,0.00002360,0.00000296,0.00001802,-0.00002937,-0.00000055,0.
 00000075,0.00000296,-0.00005251,0.00002479,0.00002630,0.00003602,0.000
 25334,0.00019622,0.00000988,0.00000096,0.00002979,-0.00005070,0.000015
 00,-0.00002936,0.00002562,-0.00026186,-0.00020756,0.00008620,0.0000399
 8,0.00047825,-0.00008234,-0.00004979,-0.00063792\\\@


 TERRY FORSTER, PORTLY ATLANTA BRAVES RELIEVER,
 ANNOUNCING THAT HE WAS GOING TO A FAT FARM:
 "A WAIST IS A TERRIBLE THING TO MIND."
 Job cpu time:       0 days 14 hours 13 minutes 45.3 seconds.
 Elapsed time:       0 days  0 hours 42 minutes 44.1 seconds.
 File lengths (MBytes):  RWF=   1952 Int=      0 D2E=      0 Chk=     64 Scr=     32
 Normal termination of Gaussian 16 at Tue Feb  5 12:43:17 2019.
