 Entering Gaussian System, Link 0=g16
 Input=rxn906loosebasis.com
 Output=rxn906loosebasis.log
 Initial command:
 /shared/centos7/gaussian/g16/l1.exe "/scratch/dinius.ab/QMscratch/Gau-9620.inp" -scrdir="/scratch/dinius.ab/QMscratch/"
 Default is to use a total of  20 processors:
                               20 via shared-memory
                                1 via Linda
 Entering Link 1 = /shared/centos7/gaussian/g16/l1.exe PID=      9621.
  
 Copyright (c) 1988,1990,1992,1993,1995,1998,2003,2009,2016,
            Gaussian, Inc.  All Rights Reserved.
  
 This is part of the Gaussian(R) 16 program.  It is based on
 the Gaussian(R) 09 system (copyright 2009, Gaussian, Inc.),
 the Gaussian(R) 03 system (copyright 2003, Gaussian, Inc.),
 the Gaussian(R) 98 system (copyright 1998, Gaussian, Inc.),
 the Gaussian(R) 94 system (copyright 1995, Gaussian, Inc.),
 the Gaussian 92(TM) system (copyright 1992, Gaussian, Inc.),
 the Gaussian 90(TM) system (copyright 1990, Gaussian, Inc.),
 the Gaussian 88(TM) system (copyright 1988, Gaussian, Inc.),
 the Gaussian 86(TM) system (copyright 1986, Carnegie Mellon
 University), and the Gaussian 82(TM) system (copyright 1983,
 Carnegie Mellon University). Gaussian is a federally registered
 trademark of Gaussian, Inc.
  
 This software contains proprietary and confidential information,
 including trade secrets, belonging to Gaussian, Inc.
  
 This software is provided under written license and may be
 used, copied, transmitted, or stored only in accord with that
 written license.
  
 The following legend is applicable only to US Government
 contracts under FAR:
  
                    RESTRICTED RIGHTS LEGEND
  
 Use, reproduction and disclosure by the US Government is
 subject to restrictions as set forth in subparagraphs (a)
 and (c) of the Commercial Computer Software - Restricted
 Rights clause in FAR 52.227-19.
  
 Gaussian, Inc.
 340 Quinnipiac St., Bldg. 40, Wallingford CT 06492
  
  
 ---------------------------------------------------------------
 Warning -- This program may not be used in any manner that
 competes with the business of Gaussian, Inc. or will provide
 assistance to any competitor of Gaussian, Inc.  The licensee
 of this program is prohibited from giving any competitor of
 Gaussian, Inc. access to this program.  By using this program,
 the user acknowledges that Gaussian, Inc. is engaged in the
 business of creating and licensing software in the field of
 computational chemistry and represents and warrants to the
 licensee that it is not a competitor of Gaussian, Inc. and that
 it will not use this program in any manner prohibited above.
 ---------------------------------------------------------------
  

 Cite this work as:
 Gaussian 16, Revision A.03,
 M. J. Frisch, G. W. Trucks, H. B. Schlegel, G. E. Scuseria, 
 M. A. Robb, J. R. Cheeseman, G. Scalmani, V. Barone, 
 G. A. Petersson, H. Nakatsuji, X. Li, M. Caricato, A. V. Marenich, 
 J. Bloino, B. G. Janesko, R. Gomperts, B. Mennucci, H. P. Hratchian, 
 J. V. Ortiz, A. F. Izmaylov, J. L. Sonnenberg, D. Williams-Young, 
 F. Ding, F. Lipparini, F. Egidi, J. Goings, B. Peng, A. Petrone, 
 T. Henderson, D. Ranasinghe, V. G. Zakrzewski, J. Gao, N. Rega, 
 G. Zheng, W. Liang, M. Hada, M. Ehara, K. Toyota, R. Fukuda, 
 J. Hasegawa, M. Ishida, T. Nakajima, Y. Honda, O. Kitao, H. Nakai, 
 T. Vreven, K. Throssell, J. A. Montgomery, Jr., J. E. Peralta, 
 F. Ogliaro, M. J. Bearpark, J. J. Heyd, E. N. Brothers, K. N. Kudin, 
 V. N. Staroverov, T. A. Keith, R. Kobayashi, J. Normand, 
 K. Raghavachari, A. P. Rendell, J. C. Burant, S. S. Iyengar, 
 J. Tomasi, M. Cossi, J. M. Millam, M. Klene, C. Adamo, R. Cammi, 
 J. W. Ochterski, R. L. Martin, K. Morokuma, O. Farkas, 
 J. B. Foresman, and D. J. Fox, Gaussian, Inc., Wallingford CT, 2016.
 
 ******************************************
 Gaussian 16:  EM64L-G16RevA.03 25-Dec-2016
                26-Feb-2019 
 ******************************************
 ----------------------------------------------------------------------
 # m062x/6-31G(d,p) Opt=(TS,Loose,maxcycle=1000,CalcFC,NoEigenTest) Int
 (Grid=SG1) freq
 ----------------------------------------------------------------------
 1/5=1,6=1000,7=-1,10=4,11=1,18=20,26=2,38=1/1,3;
 2/9=110,12=2,17=6,18=5,40=1/2;
 3/5=1,6=6,7=101,11=2,25=1,30=1,71=2,74=-55,75=1,140=1/1,2,3;
 4//1;
 5/5=2,38=5/2;
 8/6=4,10=90,11=11/1;
 11/6=1,8=1,9=11,15=111,16=1/1,2,10;
 10/6=1,13=1/2;
 6/7=2,8=2,9=2,10=2,28=1/1;
 7/10=1,18=20,25=1/1,2,3,16;
 1/5=1,6=1000,7=-1,10=4,11=1,18=20,26=2/3(2);
 2/9=110/2;
 99//99;
 2/9=110/2;
 3/5=1,6=6,7=101,11=2,25=1,30=1,71=1,74=-55,75=1/1,2,3;
 4/5=5,16=3,69=1/1;
 5/5=2,38=5/2;
 7//1,2,3,16;
 1/5=1,6=1000,7=-1,11=1,18=20,26=2/3(-5);
 2/9=110/2;
 6/7=2,8=2,9=2,10=2,19=2,28=1/1;
 99/9=1/99;
 -----
 Title
 -----
 Symbolic Z-matrix:
 Charge =  0 Multiplicity = 2
 C                     1.67466   0.61943  -1.16578 
 C                     1.20241   1.88348  -0.82295 
 C                     0.88369  -0.54229  -1.01827 
 H                     2.68013   0.50961  -1.54882 
 C                    -0.07283   2.03856  -0.32769 
 H                     1.84382   2.74475  -0.94946 
 C                    -0.92775   0.91488  -0.16302 
 H                    -0.44709   3.01817  -0.06114 
 C                    -0.46958  -0.38199  -0.50304 
 C                    -1.34407  -1.4683   -0.31623 
 C                    -2.61016  -1.28453   0.18046 
 H                    -1.01962  -2.46884  -0.56158 
 C                    -2.23602   1.07866   0.34468 
 C                    -3.06376   0.00263   0.5152 
 H                    -2.57161   2.07603   0.59928 
 H                    -3.26266  -2.13539   0.31771 
 H                    -4.06131   0.13684   0.90814 
 C                     1.43166  -1.77577  -1.34561 
 H                     2.21922  -1.45843   0.63851 
 H                     2.43643  -1.82471  -1.7399 
 H                     0.89019  -2.70341  -1.26435 
 O                     2.6584   -0.65748   1.68395 
 O                     1.45557  -0.01036   2.03739 
 H                     1.51096   0.87112   1.47972 
 
 Add virtual bond connecting atoms O22        and H19        Dist= 2.62D+00.
 Add virtual bond connecting atoms H19        and C3         Dist= 4.38D+00.
 Add virtual bond connecting atoms H19        and C18        Dist= 4.08D+00.

 GradGradGradGradGradGradGradGradGradGradGradGradGradGradGradGradGradGrad
 Berny optimization.
 Initialization pass.
                           ----------------------------
                           !    Initial Parameters    !
                           ! (Angstroms and Degrees)  !
 --------------------------                            --------------------------
 ! Name  Definition              Value          Derivative Info.                !
 --------------------------------------------------------------------------------
 ! R1    R(1,2)                  1.3923         calculate D2E/DX2 analytically  !
 ! R2    R(1,3)                  1.4131         calculate D2E/DX2 analytically  !
 ! R3    R(1,4)                  1.0815         calculate D2E/DX2 analytically  !
 ! R4    R(2,5)                  1.3768         calculate D2E/DX2 analytically  !
 ! R5    R(2,6)                  1.0813         calculate D2E/DX2 analytically  !
 ! R6    R(3,9)                  1.4569         calculate D2E/DX2 analytically  !
 ! R7    R(3,18)                 1.3888         calculate D2E/DX2 analytically  !
 ! R8    R(3,19)                 2.3169         calculate D2E/DX2 analytically  !
 ! R9    R(5,7)                  1.4215         calculate D2E/DX2 analytically  !
 ! R10   R(5,8)                  1.082          calculate D2E/DX2 analytically  !
 ! R11   R(7,9)                  1.4168         calculate D2E/DX2 analytically  !
 ! R12   R(7,13)                 1.4129         calculate D2E/DX2 analytically  !
 ! R13   R(9,10)                 1.407          calculate D2E/DX2 analytically  !
 ! R14   R(10,11)                1.3724         calculate D2E/DX2 analytically  !
 ! R15   R(10,12)                1.0801         calculate D2E/DX2 analytically  !
 ! R16   R(11,14)                1.4052         calculate D2E/DX2 analytically  !
 ! R17   R(11,16)                1.081          calculate D2E/DX2 analytically  !
 ! R18   R(13,14)                1.3682         calculate D2E/DX2 analytically  !
 ! R19   R(13,15)                1.0827         calculate D2E/DX2 analytically  !
 ! R20   R(14,17)                1.0805         calculate D2E/DX2 analytically  !
 ! R21   R(18,19)                2.1582         calculate D2E/DX2 analytically  !
 ! R22   R(18,20)                1.0805         calculate D2E/DX2 analytically  !
 ! R23   R(18,21)                1.0772         calculate D2E/DX2 analytically  !
 ! R24   R(19,22)                1.3883         calculate D2E/DX2 analytically  !
 ! R25   R(22,23)                1.4108         calculate D2E/DX2 analytically  !
 ! R26   R(23,24)                1.0445         calculate D2E/DX2 analytically  !
 ! A1    A(2,1,3)              122.0608         calculate D2E/DX2 analytically  !
 ! A2    A(2,1,4)              119.6523         calculate D2E/DX2 analytically  !
 ! A3    A(3,1,4)              118.2841         calculate D2E/DX2 analytically  !
 ! A4    A(1,2,5)              120.3328         calculate D2E/DX2 analytically  !
 ! A5    A(1,2,6)              119.548          calculate D2E/DX2 analytically  !
 ! A6    A(5,2,6)              120.1192         calculate D2E/DX2 analytically  !
 ! A7    A(1,3,9)              117.7995         calculate D2E/DX2 analytically  !
 ! A8    A(1,3,18)             118.9912         calculate D2E/DX2 analytically  !
 ! A9    A(1,3,19)              94.42           calculate D2E/DX2 analytically  !
 ! A10   A(9,3,18)             123.2001         calculate D2E/DX2 analytically  !
 ! A11   A(9,3,19)             109.0295         calculate D2E/DX2 analytically  !
 ! A12   A(2,5,7)              120.6432         calculate D2E/DX2 analytically  !
 ! A13   A(2,5,8)              120.7285         calculate D2E/DX2 analytically  !
 ! A14   A(7,5,8)              118.6274         calculate D2E/DX2 analytically  !
 ! A15   A(5,7,9)              120.0843         calculate D2E/DX2 analytically  !
 ! A16   A(5,7,13)             120.4572         calculate D2E/DX2 analytically  !
 ! A17   A(9,7,13)             119.4579         calculate D2E/DX2 analytically  !
 ! A18   A(3,9,7)              119.0757         calculate D2E/DX2 analytically  !
 ! A19   A(3,9,10)             122.6376         calculate D2E/DX2 analytically  !
 ! A20   A(7,9,10)             118.2844         calculate D2E/DX2 analytically  !
 ! A21   A(9,10,11)            121.2014         calculate D2E/DX2 analytically  !
 ! A22   A(9,10,12)            119.8911         calculate D2E/DX2 analytically  !
 ! A23   A(11,10,12)           118.907          calculate D2E/DX2 analytically  !
 ! A24   A(10,11,14)           120.4422         calculate D2E/DX2 analytically  !
 ! A25   A(10,11,16)           119.8287         calculate D2E/DX2 analytically  !
 ! A26   A(14,11,16)           119.7289         calculate D2E/DX2 analytically  !
 ! A27   A(7,13,14)            120.9177         calculate D2E/DX2 analytically  !
 ! A28   A(7,13,15)            118.575          calculate D2E/DX2 analytically  !
 ! A29   A(14,13,15)           120.5071         calculate D2E/DX2 analytically  !
 ! A30   A(11,14,13)           119.6962         calculate D2E/DX2 analytically  !
 ! A31   A(11,14,17)           119.8954         calculate D2E/DX2 analytically  !
 ! A32   A(13,14,17)           120.4081         calculate D2E/DX2 analytically  !
 ! A33   A(3,18,20)            119.5474         calculate D2E/DX2 analytically  !
 ! A34   A(3,18,21)            123.2798         calculate D2E/DX2 analytically  !
 ! A35   A(19,18,20)            90.1605         calculate D2E/DX2 analytically  !
 ! A36   A(19,18,21)           103.9285         calculate D2E/DX2 analytically  !
 ! A37   A(20,18,21)           117.1278         calculate D2E/DX2 analytically  !
 ! A38   A(3,19,22)            119.5194         calculate D2E/DX2 analytically  !
 ! A39   A(18,19,22)           153.2001         calculate D2E/DX2 analytically  !
 ! A40   A(19,22,23)           100.5778         calculate D2E/DX2 analytically  !
 ! A41   A(22,23,24)           102.0119         calculate D2E/DX2 analytically  !
 ! D1    D(3,1,2,5)             -0.2903         calculate D2E/DX2 analytically  !
 ! D2    D(3,1,2,6)            179.7952         calculate D2E/DX2 analytically  !
 ! D3    D(4,1,2,5)           -179.6709         calculate D2E/DX2 analytically  !
 ! D4    D(4,1,2,6)              0.4146         calculate D2E/DX2 analytically  !
 ! D5    D(2,1,3,9)              0.6878         calculate D2E/DX2 analytically  !
 ! D6    D(2,1,3,18)          -178.2431         calculate D2E/DX2 analytically  !
 ! D7    D(2,1,3,19)          -113.5453         calculate D2E/DX2 analytically  !
 ! D8    D(4,1,3,9)           -179.9235         calculate D2E/DX2 analytically  !
 ! D9    D(4,1,3,18)             1.1456         calculate D2E/DX2 analytically  !
 ! D10   D(4,1,3,19)            65.8434         calculate D2E/DX2 analytically  !
 ! D11   D(1,2,5,7)             -0.2244         calculate D2E/DX2 analytically  !
 ! D12   D(1,2,5,8)           -179.873          calculate D2E/DX2 analytically  !
 ! D13   D(6,2,5,7)            179.6896         calculate D2E/DX2 analytically  !
 ! D14   D(6,2,5,8)              0.0411         calculate D2E/DX2 analytically  !
 ! D15   D(1,3,9,7)             -0.5833         calculate D2E/DX2 analytically  !
 ! D16   D(1,3,9,10)           179.9767         calculate D2E/DX2 analytically  !
 ! D17   D(18,3,9,7)           178.2992         calculate D2E/DX2 analytically  !
 ! D18   D(18,3,9,10)           -1.1408         calculate D2E/DX2 analytically  !
 ! D19   D(19,3,9,7)           105.3193         calculate D2E/DX2 analytically  !
 ! D20   D(19,3,9,10)          -74.1207         calculate D2E/DX2 analytically  !
 ! D21   D(1,3,18,20)           -2.2042         calculate D2E/DX2 analytically  !
 ! D22   D(1,3,18,21)         -179.6953         calculate D2E/DX2 analytically  !
 ! D23   D(9,3,18,20)          178.926          calculate D2E/DX2 analytically  !
 ! D24   D(9,3,18,21)            1.4348         calculate D2E/DX2 analytically  !
 ! D25   D(1,3,19,22)           45.2579         calculate D2E/DX2 analytically  !
 ! D26   D(9,3,19,22)          -76.1731         calculate D2E/DX2 analytically  !
 ! D27   D(2,5,7,9)              0.309          calculate D2E/DX2 analytically  !
 ! D28   D(2,5,7,13)          -179.9551         calculate D2E/DX2 analytically  !
 ! D29   D(8,5,7,9)            179.9648         calculate D2E/DX2 analytically  !
 ! D30   D(8,5,7,13)            -0.2993         calculate D2E/DX2 analytically  !
 ! D31   D(5,7,9,3)              0.1045         calculate D2E/DX2 analytically  !
 ! D32   D(5,7,9,10)           179.5689         calculate D2E/DX2 analytically  !
 ! D33   D(13,7,9,3)          -179.6341         calculate D2E/DX2 analytically  !
 ! D34   D(13,7,9,10)           -0.1696         calculate D2E/DX2 analytically  !
 ! D35   D(5,7,13,14)         -179.5703         calculate D2E/DX2 analytically  !
 ! D36   D(5,7,13,15)            0.2996         calculate D2E/DX2 analytically  !
 ! D37   D(9,7,13,14)            0.1673         calculate D2E/DX2 analytically  !
 ! D38   D(9,7,13,15)         -179.9629         calculate D2E/DX2 analytically  !
 ! D39   D(3,9,10,11)          179.5219         calculate D2E/DX2 analytically  !
 ! D40   D(3,9,10,12)           -0.2091         calculate D2E/DX2 analytically  !
 ! D41   D(7,9,10,11)            0.0777         calculate D2E/DX2 analytically  !
 ! D42   D(7,9,10,12)         -179.6533         calculate D2E/DX2 analytically  !
 ! D43   D(9,10,11,14)           0.0221         calculate D2E/DX2 analytically  !
 ! D44   D(9,10,11,16)        -179.8265         calculate D2E/DX2 analytically  !
 ! D45   D(12,10,11,14)        179.7557         calculate D2E/DX2 analytically  !
 ! D46   D(12,10,11,16)         -0.0929         calculate D2E/DX2 analytically  !
 ! D47   D(10,11,14,13)         -0.0287         calculate D2E/DX2 analytically  !
 ! D48   D(10,11,14,17)       -179.8318         calculate D2E/DX2 analytically  !
 ! D49   D(16,11,14,13)        179.8201         calculate D2E/DX2 analytically  !
 ! D50   D(16,11,14,17)          0.017          calculate D2E/DX2 analytically  !
 ! D51   D(7,13,14,11)          -0.0669         calculate D2E/DX2 analytically  !
 ! D52   D(7,13,14,17)         179.7351         calculate D2E/DX2 analytically  !
 ! D53   D(15,13,14,11)       -179.9342         calculate D2E/DX2 analytically  !
 ! D54   D(15,13,14,17)         -0.1322         calculate D2E/DX2 analytically  !
 ! D55   D(20,18,19,22)         90.5404         calculate D2E/DX2 analytically  !
 ! D56   D(21,18,19,22)       -151.3936         calculate D2E/DX2 analytically  !
 ! D57   D(3,19,22,23)          46.9321         calculate D2E/DX2 analytically  !
 ! D58   D(18,19,22,23)         66.4322         calculate D2E/DX2 analytically  !
 ! D59   D(19,22,23,24)        -93.7808         calculate D2E/DX2 analytically  !
 --------------------------------------------------------------------------------
 Trust Radius=3.00D-01 FncErr=1.00D-05 GrdErr=1.00D-04 EigMax=2.50D+02 EigMin=1.00D-04
 Number of steps in this run=    144 maximum allowed number of steps=    144.
 Search for a saddle point of order  1.
 GradGradGradGradGradGradGradGradGradGradGradGradGradGradGradGradGradGrad

                          Input orientation:                          
 ---------------------------------------------------------------------
 Center     Atomic      Atomic             Coordinates (Angstroms)
 Number     Number       Type             X           Y           Z
 ---------------------------------------------------------------------
      1          6           0        1.674660    0.619430   -1.165780
      2          6           0        1.202410    1.883480   -0.822950
      3          6           0        0.883690   -0.542290   -1.018270
      4          1           0        2.680130    0.509610   -1.548820
      5          6           0       -0.072830    2.038560   -0.327690
      6          1           0        1.843820    2.744750   -0.949460
      7          6           0       -0.927750    0.914880   -0.163020
      8          1           0       -0.447090    3.018170   -0.061140
      9          6           0       -0.469580   -0.381990   -0.503040
     10          6           0       -1.344070   -1.468300   -0.316230
     11          6           0       -2.610160   -1.284530    0.180460
     12          1           0       -1.019620   -2.468840   -0.561580
     13          6           0       -2.236020    1.078660    0.344680
     14          6           0       -3.063760    0.002630    0.515200
     15          1           0       -2.571610    2.076030    0.599280
     16          1           0       -3.262660   -2.135390    0.317710
     17          1           0       -4.061310    0.136840    0.908140
     18          6           0        1.431660   -1.775770   -1.345610
     19          1           0        2.219220   -1.458430    0.638510
     20          1           0        2.436430   -1.824710   -1.739900
     21          1           0        0.890190   -2.703410   -1.264350
     22          8           0        2.658400   -0.657480    1.683950
     23          8           0        1.455570   -0.010360    2.037390
     24          1           0        1.510960    0.871120    1.479720
 ---------------------------------------------------------------------
                    Distance matrix (angstroms):
                    1          2          3          4          5
     1  C    0.000000
     2  C    1.392255   0.000000
     3  C    1.413148   2.454403   0.000000
     4  H    1.081550   2.144309   2.148296   0.000000
     5  C    2.402092   1.376797   2.837714   3.377519   0.000000
     6  H    2.142987   1.081294   3.425086   2.460589   2.135146
     7  C    2.804524   2.431311   2.477118   3.886063   1.421500
     8  H    3.387625   2.142131   3.919687   4.276163   1.082014
     9  C    2.457607   2.833769   1.456879   3.436463   2.459110
    10  C    3.767371   4.239782   2.512622   4.650332   3.730181
    11  C    4.878228   5.057550   3.767607   5.847779   4.211791
    12  H    4.142658   4.893712   2.746407   4.851181   4.611699
    13  C    4.217321   3.719395   3.770637   5.298839   2.460260
    14  C    5.065448   4.850613   4.269758   6.124498   3.714988
    15  H    4.823684   4.037702   4.627220   5.886321   2.665442
    16  H    5.845246   6.114677   4.638430   6.767327   5.292770
    17  H    6.118447   5.809834   5.350261   7.184889   4.588223
    18  C    2.414202   3.703490   1.388847   2.612075   4.224780
    19  H    2.805265   3.786572   2.316867   2.978260   4.291384
    20  H    2.623686   4.014259   2.139241   2.354772   4.818255
    21  H    3.415608   4.618644   2.175095   3.688944   4.928592
    22  O    3.274020   3.854988   3.234943   3.437059   4.333006
    23  O    3.271840   3.439806   3.153895   3.825025   3.482482
    24  H    2.662483   2.534239   2.937882   3.266451   2.671711
                    6          7          8          9         10
     6  H    0.000000
     7  C    3.412992   0.000000
     8  H    2.472274   2.159917   0.000000
     9  C    3.915050   1.416829   3.428829   0.000000
    10  C    5.321035   2.424117   4.582364   1.407018   0.000000
    11  C    6.111445   2.790320   4.821874   2.421535   1.372391
    12  H    5.960810   3.408350   5.539450   2.158915   1.080067
    13  C    4.593011   1.412853   2.669580   2.443857   2.778378
    14  C    5.809371   2.419653   4.033932   2.813275   2.410860
    15  H    4.726712   2.152126   2.416064   3.416943   3.860996
    16  H    7.176185   3.871312   5.884738   3.398432   2.127881
    17  H    6.717323   3.401754   4.722727   3.893731   3.385107
    18  C    4.556524   3.768943   5.306734   2.503450   2.976380
    19  H    4.508802   4.022247   5.257249   3.113118   3.688992
    20  H    4.675034   4.616233   5.881021   3.472198   4.055372
    21  H    5.539947   4.196410   5.997709   2.795990   2.723297
    22  O    4.378762   4.329444   5.118575   3.826628   4.547298
    23  O    4.081990   3.373142   4.146798   3.209065   3.937398
    24  H    3.085806   2.940717   3.289078   3.069880   4.104817
                   11         12         13         14         15
    11  C    0.000000
    12  H    2.117317   0.000000
    13  C    2.398253   3.858198   0.000000
    14  C    1.405199   3.383213   1.368237   0.000000
    15  H    3.386777   4.940861   1.082677   2.132667   0.000000
    16  H    1.080998   2.432194   3.374142   2.156315   4.277019
    17  H    2.157695   4.266324   2.129835   1.080518   2.464763
    18  C    4.348162   2.665300   4.945374   5.180166   5.886011
    19  H    4.854170   3.598782   5.135399   5.482680   5.953654
    20  H    5.426569   3.707779   5.882756   6.219062   6.765205
    21  H    4.043902   2.048483   5.163935   5.111083   6.188717
    22  O    5.514653   4.674533   5.363131   5.877486   6.000133
    23  O    4.647780   4.350326   4.204648   4.768813   4.758084
    24  H    4.828927   4.661124   3.920618   4.755275   4.346764
                   16         17         18         19         20
    16  H    0.000000
    17  H    2.479814   0.000000
    18  C    4.993255   6.237803   0.000000
    19  H    5.532829   6.485572   2.158168   0.000000
    20  H    6.067117   7.285631   1.080473   2.416232   0.000000
    21  H    4.480148   6.107707   1.077176   2.633851   1.840956
    22  O    6.253781   6.810824   3.454518   1.388288   3.624148
    23  O    5.452958   5.633191   3.816010   2.153354   4.303704
    24  H    5.759932   5.649430   3.872313   2.576057   4.299994
                   21         22         23         24
    21  H    0.000000
    22  O    4.000609   0.000000
    23  O    4.298100   1.410845   0.000000
    24  H    4.548905   1.922224   1.044543   0.000000
 Stoichiometry    C11H11O2(2)
 Framework group  C1[X(C11H11O2)]
 Deg. of freedom    66
 Full point group                 C1      NOp   1
 Largest Abelian subgroup         C1      NOp   1
 Largest concise Abelian subgroup C1      NOp   1
                         Standard orientation:                         
 ---------------------------------------------------------------------
 Center     Atomic      Atomic             Coordinates (Angstroms)
 Number     Number       Type             X           Y           Z
 ---------------------------------------------------------------------
      1          6           0        1.676685    0.612768   -1.166159
      2          6           0        1.204071    1.878967   -0.831868
      3          6           0        0.885510   -0.547981   -1.012241
      4          1           0        2.682598    0.500510   -1.547323
      5          6           0       -0.071743    2.037198   -0.339087
      6          1           0        1.845652    2.739407   -0.963063
      7          6           0       -0.926886    0.914598   -0.168325
      8          1           0       -0.446286    3.018479   -0.079164
      9          6           0       -0.468357   -0.384403   -0.499615
     10          6           0       -1.343095   -1.469493   -0.306972
     11          6           0       -2.609759   -1.282564    0.187069
     12          1           0       -1.018388   -2.471569   -0.545621
     13          6           0       -2.235744    1.081607    0.336803
     14          6           0       -3.063713    0.006693    0.513146
     15          1           0       -2.571602    2.080572    0.584709
     16          1           0       -3.262443   -2.132527    0.328925
     17          1           0       -4.061718    0.143402    0.904065
     18          6           0        1.433826   -1.783515   -1.331147
     19          1           0        2.219077   -1.453671    0.651848
     20          1           0        2.439055   -1.834964   -1.723947
     21          1           0        0.892235   -2.710612   -1.244665
     22          8           0        2.657059   -0.646146    1.692723
     23          8           0        1.453836    0.003218    2.040665
     24          1           0        1.509902    0.881158    1.477506
 ---------------------------------------------------------------------
 Rotational constants (GHZ):           1.1094821           0.6528936           0.5986252
 Standard basis: 6-31G(d,p) (6D, 7F)
 There are   250 symmetry adapted cartesian basis functions of A   symmetry.
 There are   250 symmetry adapted basis functions of A   symmetry.
   250 basis functions,   441 primitive gaussians,   250 cartesian basis functions
    47 alpha electrons       46 beta electrons
       nuclear repulsion energy       755.9877079741 Hartrees.
 NAtoms=   24 NActive=   24 NUniq=   24 SFac= 1.00D+00 NAtFMM=   60 NAOKFM=F Big=F
 Integral buffers will be    131072 words long.
 Raffenetti 2 integral format.
 Two-electron integral symmetry is turned on.
 One-electron integrals computed using PRISM.
 NBasis=   250 RedAO= T EigKep=  2.65D-04  NBF=   250
 NBsUse=   250 1.00D-06 EigRej= -1.00D+00 NBFU=   250
 ExpMin= 1.61D-01 ExpMax= 5.48D+03 ExpMxC= 8.25D+02 IAcc=1 IRadAn=         1 AccDes= 0.00D+00
 Harris functional with IExCor= 1009 and IRadAn=       1 diagonalized for initial guess.
 HarFok:  IExCor= 1009 AccDes= 0.00D+00 IRadAn=         1 IDoV= 1 UseB2=F ITyADJ=14
 ICtDFT=  3500011 ScaDFX=  1.000000  1.000000  1.000000  1.000000
 FoFCou: FMM=F IPFlag=           0 FMFlag=      100000 FMFlg1=           0
         NFxFlg=           0 DoJE=T BraDBF=F KetDBF=T FulRan=T
         wScrn=  0.000000 ICntrl=       500 IOpCl=  0 I1Cent=   200000004 NGrid=           0
         NMat0=    1 NMatS0=      1 NMatT0=    0 NMatD0=    1 NMtDS0=    0 NMtDT0=    0
 Petite list used in FoFCou.
 Initial guess <Sx>= 0.0000 <Sy>= 0.0000 <Sz>= 0.5000 <S**2>= 0.7500 S= 0.5000
 Requested convergence on RMS density matrix=1.00D-08 within 128 cycles.
 Requested convergence on MAX density matrix=1.00D-06.
 Requested convergence on             energy=1.00D-06.
 No special actions if energy rises.
 Restarting incremental Fock formation.
 SCF Done:  E(UM062X) =  -575.792848926     A.U. after   21 cycles
            NFock= 21  Conv=0.86D-08     -V/T= 2.0089
 <Sx>= 0.0000 <Sy>= 0.0000 <Sz>= 0.5000 <S**2>= 0.7900 S= 0.5198
 <L.S>= 0.000000000000E+00
 Annihilation of the first spin contaminant:
 S**2 before annihilation     0.7900,   after     0.7511
 DoSCS=F DFT=T ScalE2(SS,OS)=  1.000000  1.000000
 Range of M.O.s used for correlation:     1   250
 NBasis=   250 NAE=    47 NBE=    46 NFC=     0 NFV=     0
 NROrb=    250 NOA=    47 NOB=    46 NVA=   203 NVB=   204

 **** Warning!!: The largest beta MO coefficient is  0.10173208D+02

 Symmetrizing basis deriv contribution to polar:
 IMax=3 JMax=2 DiffMx= 0.00D+00
 G2DrvN: will do    25 centers at a time, making    1 passes.
 Calling FoFCou, ICntrl=  3107 FMM=F I1Cent=   0 AccDes= 0.00D+00.
 End of G2Drv F.D. properties file   721 does not exist.
 End of G2Drv F.D. properties file   722 does not exist.
 End of G2Drv F.D. properties file   788 does not exist.
          IDoAtm=111111111111111111111111
          Differentiating once with respect to nuclear coordinates.
 Keep R1 and R2 ints in memory in canonical form, NReq=1005959319.
          There are    75 degrees of freedom in the 1st order CPHF.  IDoFFX=6 NUNeed=     0.
     69 vectors produced by pass  0 Test12= 2.52D-14 1.33D-09 XBig12= 2.09D-01 1.30D-01.
 AX will form    69 AO Fock derivatives at one time.
     69 vectors produced by pass  1 Test12= 2.52D-14 1.33D-09 XBig12= 2.68D-02 4.25D-02.
     69 vectors produced by pass  2 Test12= 2.52D-14 1.33D-09 XBig12= 8.67D-04 5.64D-03.
     69 vectors produced by pass  3 Test12= 2.52D-14 1.33D-09 XBig12= 1.35D-05 6.84D-04.
     69 vectors produced by pass  4 Test12= 2.52D-14 1.33D-09 XBig12= 1.64D-07 5.08D-05.
     69 vectors produced by pass  5 Test12= 2.52D-14 1.33D-09 XBig12= 1.37D-09 3.78D-06.
     69 vectors produced by pass  6 Test12= 2.52D-14 1.33D-09 XBig12= 9.34D-12 3.20D-07.
     36 vectors produced by pass  7 Test12= 2.52D-14 1.33D-09 XBig12= 5.04D-14 1.74D-08.
 InvSVY:  IOpt=1 It=  1 EMax= 6.66D-16
 Solved reduced A of dimension   519 with    75 vectors.
 End of Minotr F.D. properties file   721 does not exist.
 End of Minotr F.D. properties file   722 does not exist.
 End of Minotr F.D. properties file   788 does not exist.

 **********************************************************************

            Population analysis using the SCF density.

 **********************************************************************

 Orbital symmetries:
 Alpha Orbitals:
       Occupied  (A) (A) (A) (A) (A) (A) (A) (A) (A) (A) (A) (A)
                 (A) (A) (A) (A) (A) (A) (A) (A) (A) (A) (A) (A)
                 (A) (A) (A) (A) (A) (A) (A) (A) (A) (A) (A) (A)
                 (A) (A) (A) (A) (A) (A) (A) (A) (A) (A) (A)
       Virtual   (A) (A) (A) (A) (A) (A) (A) (A) (A) (A) (A) (A)
                 (A) (A) (A) (A) (A) (A) (A) (A) (A) (A) (A) (A)
                 (A) (A) (A) (A) (A) (A) (A) (A) (A) (A) (A) (A)
                 (A) (A) (A) (A) (A) (A) (A) (A) (A) (A) (A) (A)
                 (A) (A) (A) (A) (A) (A) (A) (A) (A) (A) (A) (A)
                 (A) (A) (A) (A) (A) (A) (A) (A) (A) (A) (A) (A)
                 (A) (A) (A) (A) (A) (A) (A) (A) (A) (A) (A) (A)
                 (A) (A) (A) (A) (A) (A) (A) (A) (A) (A) (A) (A)
                 (A) (A) (A) (A) (A) (A) (A) (A) (A) (A) (A) (A)
                 (A) (A) (A) (A) (A) (A) (A) (A) (A) (A) (A) (A)
                 (A) (A) (A) (A) (A) (A) (A) (A) (A) (A) (A) (A)
                 (A) (A) (A) (A) (A) (A) (A) (A) (A) (A) (A) (A)
                 (A) (A) (A) (A) (A) (A) (A) (A) (A) (A) (A) (A)
                 (A) (A) (A) (A) (A) (A) (A) (A) (A) (A) (A) (A)
                 (A) (A) (A) (A) (A) (A) (A) (A) (A) (A) (A) (A)
                 (A) (A) (A) (A) (A) (A) (A) (A) (A) (A) (A) (A)
                 (A) (A) (A) (A) (A) (A) (A) (A) (A) (A) (A)
 Beta  Orbitals:
       Occupied  (A) (A) (A) (A) (A) (A) (A) (A) (A) (A) (A) (A)
                 (A) (A) (A) (A) (A) (A) (A) (A) (A) (A) (A) (A)
                 (A) (A) (A) (A) (A) (A) (A) (A) (A) (A) (A) (A)
                 (A) (A) (A) (A) (A) (A) (A) (A) (A) (A)
       Virtual   (A) (A) (A) (A) (A) (A) (A) (A) (A) (A) (A) (A)
                 (A) (A) (A) (A) (A) (A) (A) (A) (A) (A) (A) (A)
                 (A) (A) (A) (A) (A) (A) (A) (A) (A) (A) (A) (A)
                 (A) (A) (A) (A) (A) (A) (A) (A) (A) (A) (A) (A)
                 (A) (A) (A) (A) (A) (A) (A) (A) (A) (A) (A) (A)
                 (A) (A) (A) (A) (A) (A) (A) (A) (A) (A) (A) (A)
                 (A) (A) (A) (A) (A) (A) (A) (A) (A) (A) (A) (A)
                 (A) (A) (A) (A) (A) (A) (A) (A) (A) (A) (A) (A)
                 (A) (A) (A) (A) (A) (A) (A) (A) (A) (A) (A) (A)
                 (A) (A) (A) (A) (A) (A) (A) (A) (A) (A) (A) (A)
                 (A) (A) (A) (A) (A) (A) (A) (A) (A) (A) (A) (A)
                 (A) (A) (A) (A) (A) (A) (A) (A) (A) (A) (A) (A)
                 (A) (A) (A) (A) (A) (A) (A) (A) (A) (A) (A) (A)
                 (A) (A) (A) (A) (A) (A) (A) (A) (A) (A) (A) (A)
                 (A) (A) (A) (A) (A) (A) (A) (A) (A) (A) (A) (A)
                 (A) (A) (A) (A) (A) (A) (A) (A) (A) (A) (A) (A)
                 (A) (A) (A) (A) (A) (A) (A) (A) (A) (A) (A) (A)
 The electronic state is 2-A.
 Alpha  occ. eigenvalues --  -19.67780 -19.66889 -10.58143 -10.57477 -10.57389
 Alpha  occ. eigenvalues --  -10.57133 -10.57117 -10.56951 -10.56640 -10.56133
 Alpha  occ. eigenvalues --  -10.56118 -10.55995 -10.55885  -1.19747  -0.99698
 Alpha  occ. eigenvalues --   -0.94168  -0.91525  -0.90458  -0.85108  -0.84312
 Alpha  occ. eigenvalues --   -0.78241  -0.71714  -0.70862  -0.66753  -0.60461
 Alpha  occ. eigenvalues --   -0.59612  -0.57965  -0.55379  -0.53820  -0.52372
 Alpha  occ. eigenvalues --   -0.50738  -0.50462  -0.49470  -0.47971  -0.47735
 Alpha  occ. eigenvalues --   -0.46422  -0.46326  -0.44815  -0.41355  -0.40173
 Alpha  occ. eigenvalues --   -0.39992  -0.38629  -0.33138  -0.32627  -0.31333
 Alpha  occ. eigenvalues --   -0.29728  -0.23205
 Alpha virt. eigenvalues --   -0.00940   0.01163   0.05433   0.07291   0.12569
 Alpha virt. eigenvalues --    0.13286   0.13777   0.13991   0.15657   0.18394
 Alpha virt. eigenvalues --    0.18650   0.19894   0.21521   0.22290   0.22817
 Alpha virt. eigenvalues --    0.24885   0.26875   0.28556   0.29107   0.33155
 Alpha virt. eigenvalues --    0.34431   0.34992   0.35535   0.39105   0.44688
 Alpha virt. eigenvalues --    0.49400   0.52166   0.54622   0.54954   0.55599
 Alpha virt. eigenvalues --    0.56807   0.58469   0.59455   0.60015   0.61071
 Alpha virt. eigenvalues --    0.62577   0.63623   0.64267   0.64813   0.65103
 Alpha virt. eigenvalues --    0.65496   0.66344   0.66735   0.67073   0.69127
 Alpha virt. eigenvalues --    0.69613   0.71190   0.73191   0.75569   0.80184
 Alpha virt. eigenvalues --    0.82238   0.84080   0.85489   0.86191   0.86465
 Alpha virt. eigenvalues --    0.88105   0.88998   0.90426   0.91018   0.91426
 Alpha virt. eigenvalues --    0.93705   0.93949   0.94818   0.97059   0.98097
 Alpha virt. eigenvalues --    0.99512   1.01455   1.02925   1.03694   1.04393
 Alpha virt. eigenvalues --    1.06857   1.08240   1.09807   1.11089   1.13163
 Alpha virt. eigenvalues --    1.16376   1.16742   1.19107   1.21480   1.23777
 Alpha virt. eigenvalues --    1.24729   1.27306   1.28410   1.30538   1.31271
 Alpha virt. eigenvalues --    1.33207   1.36375   1.39129   1.40611   1.43292
 Alpha virt. eigenvalues --    1.44652   1.45683   1.46269   1.47604   1.48122
 Alpha virt. eigenvalues --    1.48796   1.49539   1.51181   1.53609   1.56583
 Alpha virt. eigenvalues --    1.57244   1.60754   1.65021   1.75089   1.77284
 Alpha virt. eigenvalues --    1.78883   1.80712   1.81925   1.82628   1.88108
 Alpha virt. eigenvalues --    1.88323   1.90059   1.90716   1.92189   1.92627
 Alpha virt. eigenvalues --    1.94310   1.94975   1.98954   1.99830   2.00511
 Alpha virt. eigenvalues --    2.01605   2.04170   2.04446   2.04775   2.09348
 Alpha virt. eigenvalues --    2.11558   2.12792   2.15879   2.17668   2.18895
 Alpha virt. eigenvalues --    2.21167   2.22976   2.26054   2.28326   2.28505
 Alpha virt. eigenvalues --    2.28876   2.31898   2.32916   2.34815   2.35977
 Alpha virt. eigenvalues --    2.37640   2.40564   2.40650   2.41519   2.43573
 Alpha virt. eigenvalues --    2.45463   2.46122   2.47714   2.49290   2.50889
 Alpha virt. eigenvalues --    2.53444   2.54858   2.55112   2.55919   2.58027
 Alpha virt. eigenvalues --    2.60912   2.61301   2.61951   2.63442   2.65113
 Alpha virt. eigenvalues --    2.66015   2.67155   2.69059   2.71703   2.73896
 Alpha virt. eigenvalues --    2.76997   2.78201   2.79785   2.83102   2.86369
 Alpha virt. eigenvalues --    2.94017   3.00016   3.00787   3.04955   3.07589
 Alpha virt. eigenvalues --    3.12152   3.15966   3.18353   3.23140   3.23590
 Alpha virt. eigenvalues --    3.24855   3.29333   3.36044   3.36879   3.40263
 Alpha virt. eigenvalues --    3.42981   3.47811   3.54525   3.58447   3.77317
 Alpha virt. eigenvalues --    3.80848   3.87879   4.14766   4.16889   4.18490
 Alpha virt. eigenvalues --    4.21614   4.27035   4.33496   4.40613   4.43155
 Alpha virt. eigenvalues --    4.54202   4.66671   4.94061
  Beta  occ. eigenvalues --  -19.67617 -19.66830 -10.58285 -10.57299 -10.57080
  Beta  occ. eigenvalues --  -10.57029 -10.56912 -10.56883 -10.56729 -10.56099
  Beta  occ. eigenvalues --  -10.56085 -10.56011 -10.55912  -1.19412  -0.99453
  Beta  occ. eigenvalues --   -0.93895  -0.91057  -0.89931  -0.84909  -0.83979
  Beta  occ. eigenvalues --   -0.76896  -0.71539  -0.70658  -0.66300  -0.60075
  Beta  occ. eigenvalues --   -0.59446  -0.57675  -0.55188  -0.53494  -0.52039
  Beta  occ. eigenvalues --   -0.50217  -0.49966  -0.49203  -0.47656  -0.47199
  Beta  occ. eigenvalues --   -0.46034  -0.45894  -0.44542  -0.40294  -0.40068
  Beta  occ. eigenvalues --   -0.39799  -0.36522  -0.32498  -0.32071  -0.30373
  Beta  occ. eigenvalues --   -0.28261
  Beta virt. eigenvalues --   -0.08302   0.00210   0.02025   0.05957   0.09334
  Beta virt. eigenvalues --    0.12789   0.13569   0.14203   0.14458   0.15932
  Beta virt. eigenvalues --    0.18605   0.19047   0.20106   0.21593   0.22579
  Beta virt. eigenvalues --    0.22902   0.25434   0.27054   0.28763   0.29417
  Beta virt. eigenvalues --    0.33337   0.34628   0.35304   0.35662   0.39301
  Beta virt. eigenvalues --    0.44941   0.49521   0.52552   0.54925   0.55535
  Beta virt. eigenvalues --    0.55969   0.57213   0.58799   0.60083   0.60969
  Beta virt. eigenvalues --    0.61771   0.63439   0.63846   0.64706   0.65385
  Beta virt. eigenvalues --    0.65496   0.65822   0.66538   0.67154   0.68225
  Beta virt. eigenvalues --    0.69676   0.70319   0.71338   0.73714   0.75638
  Beta virt. eigenvalues --    0.80471   0.82264   0.85155   0.85858   0.86625
  Beta virt. eigenvalues --    0.86927   0.88227   0.89258   0.90792   0.91205
  Beta virt. eigenvalues --    0.92031   0.94031   0.94218   0.95350   0.97443
  Beta virt. eigenvalues --    0.98374   0.99994   1.02031   1.03635   1.04007
  Beta virt. eigenvalues --    1.04982   1.07244   1.08525   1.10003   1.11326
  Beta virt. eigenvalues --    1.13239   1.16622   1.17206   1.19347   1.21790
  Beta virt. eigenvalues --    1.24049   1.25285   1.27982   1.28818   1.30804
  Beta virt. eigenvalues --    1.31602   1.34260   1.37420   1.39574   1.41318
  Beta virt. eigenvalues --    1.43973   1.45532   1.46000   1.46435   1.47881
  Beta virt. eigenvalues --    1.48539   1.49436   1.49836   1.52685   1.53958
  Beta virt. eigenvalues --    1.56734   1.57584   1.61027   1.65198   1.75608
  Beta virt. eigenvalues --    1.77782   1.79274   1.80996   1.82464   1.83154
  Beta virt. eigenvalues --    1.89113   1.89319   1.90570   1.91236   1.92744
  Beta virt. eigenvalues --    1.92996   1.94762   1.95382   1.99609   2.00466
  Beta virt. eigenvalues --    2.01646   2.02342   2.04272   2.05251   2.05306
  Beta virt. eigenvalues --    2.10046   2.11877   2.13074   2.16439   2.18219
  Beta virt. eigenvalues --    2.19195   2.21283   2.23348   2.26818   2.29079
  Beta virt. eigenvalues --    2.29247   2.29630   2.32478   2.33264   2.35138
  Beta virt. eigenvalues --    2.36663   2.38376   2.40669   2.41375   2.41913
  Beta virt. eigenvalues --    2.43964   2.46038   2.46843   2.47837   2.50487
  Beta virt. eigenvalues --    2.51485   2.54999   2.55255   2.55553   2.57131
  Beta virt. eigenvalues --    2.58461   2.61574   2.61824   2.62194   2.64229
  Beta virt. eigenvalues --    2.65348   2.66759   2.67650   2.69653   2.72165
  Beta virt. eigenvalues --    2.74590   2.77379   2.79047   2.79976   2.83682
  Beta virt. eigenvalues --    2.86651   2.95167   2.99973   3.01295   3.05475
  Beta virt. eigenvalues --    3.08169   3.11846   3.16617   3.18805   3.23480
  Beta virt. eigenvalues --    3.23840   3.25286   3.30661   3.36916   3.37506
  Beta virt. eigenvalues --    3.41950   3.43026   3.47973   3.54741   3.61178
  Beta virt. eigenvalues --    3.78187   3.80963   3.88270   4.14946   4.17133
  Beta virt. eigenvalues --    4.18769   4.22469   4.27965   4.35206   4.42139
  Beta virt. eigenvalues --    4.43589   4.55178   4.67362   4.94618
          Condensed to atoms (all electrons):
               1          2          3          4          5          6
     1  C    5.001810   0.496455   0.477859   0.377875  -0.041993  -0.030826
     2  C    0.496455   4.897077  -0.017825  -0.033368   0.505618   0.375687
     3  C    0.477859  -0.017825   4.809606  -0.038351  -0.053924   0.002662
     4  H    0.377875  -0.033368  -0.038351   0.560320   0.004077  -0.004458
     5  C   -0.041993   0.505618  -0.053924   0.004077   5.040130  -0.030604
     6  H   -0.030826   0.375687   0.002662  -0.004458  -0.030604   0.552503
     7  C   -0.049474  -0.013954  -0.022973   0.000653   0.450460   0.002132
     8  H    0.003989  -0.036390   0.000692  -0.000170   0.376330  -0.004276
     9  C   -0.012115  -0.042043   0.408225   0.003653  -0.039421   0.001251
    10  C    0.010484  -0.001525  -0.085988  -0.000135   0.013734   0.000017
    11  C   -0.000276   0.000079   0.007758   0.000002  -0.000548  -0.000000
    12  H   -0.000049   0.000018  -0.011852  -0.000010  -0.000182   0.000000
    13  C   -0.000235   0.007525   0.011800   0.000007  -0.080001  -0.000199
    14  C    0.000052  -0.000418  -0.000515  -0.000000   0.008082   0.000003
    15  H   -0.000000   0.000356  -0.000160  -0.000000  -0.006911  -0.000009
    16  H    0.000002  -0.000000  -0.000214  -0.000000   0.000011  -0.000000
    17  H   -0.000000   0.000003   0.000015   0.000000  -0.000198  -0.000000
    18  C   -0.091780   0.007566   0.491227  -0.007346  -0.000084  -0.000206
    19  H   -0.006775  -0.000359  -0.003470   0.000048   0.000163  -0.000003
    20  H   -0.005114   0.000252  -0.030495   0.005332  -0.000004  -0.000008
    21  H    0.004557  -0.000232  -0.018206   0.000144   0.000019   0.000002
    22  O    0.004992  -0.000509  -0.006997   0.000136  -0.000001  -0.000012
    23  O   -0.001821  -0.002844   0.005999   0.000008  -0.001579   0.000009
    24  H    0.000610   0.010731  -0.001693  -0.000018   0.005878   0.000029
               7          8          9         10         11         12
     1  C   -0.049474   0.003989  -0.012115   0.010484  -0.000276  -0.000049
     2  C   -0.013954  -0.036390  -0.042043  -0.001525   0.000079   0.000018
     3  C   -0.022973   0.000692   0.408225  -0.085988   0.007758  -0.011852
     4  H    0.000653  -0.000170   0.003653  -0.000135   0.000002  -0.000010
     5  C    0.450460   0.376330  -0.039421   0.013734  -0.000548  -0.000182
     6  H    0.002132  -0.004276   0.001251   0.000017  -0.000000   0.000000
     7  C    4.748395  -0.037872   0.517491  -0.058326  -0.038013   0.004489
     8  H   -0.037872   0.563820   0.003648  -0.000177   0.000011   0.000002
     9  C    0.517491   0.003648   4.773749   0.503293  -0.015338  -0.033063
    10  C   -0.058326  -0.000177   0.503293   4.974250   0.545998   0.367756
    11  C   -0.038013   0.000011  -0.015338   0.545998   4.835090  -0.036631
    12  H    0.004489   0.000002  -0.033063   0.367756  -0.036631   0.584727
    13  C    0.486231  -0.006294  -0.026957  -0.064060  -0.031501   0.000638
    14  C   -0.021525   0.000287  -0.039301  -0.032859   0.516428   0.004076
    15  H   -0.040572   0.005050   0.003683   0.000617   0.004099   0.000019
    16  H    0.001214  -0.000000   0.002348  -0.030756   0.375192  -0.004967
    17  H    0.002402  -0.000012   0.001187   0.003656  -0.035808  -0.000186
    18  C    0.009485   0.000010  -0.062203  -0.018941   0.000465   0.003986
    19  H   -0.000243   0.000000  -0.003555   0.000328   0.000010  -0.000008
    20  H   -0.000135  -0.000000   0.003671   0.000172  -0.000003  -0.000012
    21  H   -0.000301  -0.000000  -0.009852   0.004122   0.000221   0.002233
    22  O    0.000039  -0.000000  -0.000241   0.000050   0.000000  -0.000001
    23  O    0.000580   0.000012   0.003083  -0.000677  -0.000020  -0.000002
    24  H   -0.000718   0.000032  -0.001619   0.000042   0.000012   0.000000
              13         14         15         16         17         18
     1  C   -0.000235   0.000052  -0.000000   0.000002  -0.000000  -0.091780
     2  C    0.007525  -0.000418   0.000356  -0.000000   0.000003   0.007566
     3  C    0.011800  -0.000515  -0.000160  -0.000214   0.000015   0.491227
     4  H    0.000007  -0.000000  -0.000000  -0.000000   0.000000  -0.007346
     5  C   -0.080001   0.008082  -0.006911   0.000011  -0.000198  -0.000084
     6  H   -0.000199   0.000003  -0.000009  -0.000000  -0.000000  -0.000206
     7  C    0.486231  -0.021525  -0.040572   0.001214   0.002402   0.009485
     8  H   -0.006294   0.000287   0.005050  -0.000000  -0.000012   0.000010
     9  C   -0.026957  -0.039301   0.003683   0.002348   0.001187  -0.062203
    10  C   -0.064060  -0.032859   0.000617  -0.030756   0.003656  -0.018941
    11  C   -0.031501   0.516428   0.004099   0.375192  -0.035808   0.000465
    12  H    0.000638   0.004076   0.000019  -0.004967  -0.000186   0.003986
    13  C    4.953864   0.541636   0.374881   0.003668  -0.030664  -0.000148
    14  C    0.541636   4.841940  -0.036763  -0.036128   0.374612  -0.000006
    15  H    0.374881  -0.036763   0.575767  -0.000177  -0.004748   0.000002
    16  H    0.003668  -0.036128  -0.000177   0.566001  -0.004327   0.000005
    17  H   -0.030664   0.374612  -0.004748  -0.004327   0.565762  -0.000000
    18  C   -0.000148  -0.000006   0.000002   0.000005  -0.000000   5.236122
    19  H    0.000004  -0.000000   0.000000  -0.000000  -0.000000   0.039145
    20  H    0.000002   0.000000  -0.000000  -0.000000  -0.000000   0.382682
    21  H    0.000001  -0.000001   0.000000   0.000003  -0.000000   0.372171
    22  O    0.000001  -0.000000   0.000000   0.000000  -0.000000  -0.006994
    23  O   -0.000143   0.000022  -0.000001  -0.000000   0.000000  -0.000591
    24  H   -0.000146  -0.000006  -0.000002   0.000000   0.000000  -0.000088
              19         20         21         22         23         24
     1  C   -0.006775  -0.005114   0.004557   0.004992  -0.001821   0.000610
     2  C   -0.000359   0.000252  -0.000232  -0.000509  -0.002844   0.010731
     3  C   -0.003470  -0.030495  -0.018206  -0.006997   0.005999  -0.001693
     4  H    0.000048   0.005332   0.000144   0.000136   0.000008  -0.000018
     5  C    0.000163  -0.000004   0.000019  -0.000001  -0.001579   0.005878
     6  H   -0.000003  -0.000008   0.000002  -0.000012   0.000009   0.000029
     7  C   -0.000243  -0.000135  -0.000301   0.000039   0.000580  -0.000718
     8  H    0.000000  -0.000000  -0.000000  -0.000000   0.000012   0.000032
     9  C   -0.003555   0.003671  -0.009852  -0.000241   0.003083  -0.001619
    10  C    0.000328   0.000172   0.004122   0.000050  -0.000677   0.000042
    11  C    0.000010  -0.000003   0.000221   0.000000  -0.000020   0.000012
    12  H   -0.000008  -0.000012   0.002233  -0.000001  -0.000002   0.000000
    13  C    0.000004   0.000002   0.000001   0.000001  -0.000143  -0.000146
    14  C   -0.000000   0.000000  -0.000001  -0.000000   0.000022  -0.000006
    15  H    0.000000  -0.000000   0.000000   0.000000  -0.000001  -0.000002
    16  H   -0.000000  -0.000000   0.000003   0.000000  -0.000000   0.000000
    17  H   -0.000000  -0.000000  -0.000000  -0.000000   0.000000   0.000000
    18  C    0.039145   0.382682   0.372171  -0.006994  -0.000591  -0.000088
    19  H    0.566314  -0.001264  -0.000303   0.183142  -0.040115   0.000730
    20  H   -0.001264   0.527907  -0.031017  -0.000059   0.000011  -0.000002
    21  H   -0.000303  -0.031017   0.532342   0.000034  -0.000007  -0.000002
    22  O    0.183142  -0.000059   0.000034   8.155612   0.046085  -0.034340
    23  O   -0.040115   0.000011  -0.000007   0.046085   8.092753   0.247386
    24  H    0.000730  -0.000002  -0.000002  -0.034340   0.247386   0.428295
          Atomic-Atomic Spin Densities.
               1          2          3          4          5          6
     1  C    0.385377  -0.006404   0.012498   0.000716  -0.018894  -0.000807
     2  C   -0.006404  -0.146544   0.002020   0.000340   0.006936   0.001071
     3  C    0.012498   0.002020  -0.190312   0.000825  -0.000950  -0.000076
     4  H    0.000716   0.000340   0.000825  -0.017104   0.000072  -0.000050
     5  C   -0.018894   0.006936  -0.000950   0.000072   0.359646  -0.000647
     6  H   -0.000807   0.001071  -0.000076  -0.000050  -0.000647   0.004559
     7  C    0.000816   0.000283   0.002698  -0.000041  -0.010959  -0.000069
     8  H    0.000072   0.000226  -0.000037   0.000007   0.001108  -0.000002
     9  C    0.005323  -0.000164   0.012544   0.000084  -0.008857   0.000004
    10  C   -0.000188   0.000025   0.003435   0.000003   0.000112   0.000000
    11  C   -0.000018  -0.000001  -0.000096  -0.000000   0.000122  -0.000000
    12  H    0.000008  -0.000000   0.000037   0.000000  -0.000002   0.000000
    13  C    0.000096   0.000008  -0.000089  -0.000000  -0.007156  -0.000001
    14  C    0.000002   0.000005  -0.000028   0.000000   0.000020   0.000000
    15  H    0.000000  -0.000009   0.000001  -0.000000  -0.000175   0.000000
    16  H   -0.000000   0.000000   0.000002   0.000000  -0.000000   0.000000
    17  H   -0.000000   0.000000   0.000000  -0.000000  -0.000002  -0.000000
    18  C   -0.027269   0.000108  -0.033537  -0.000341   0.000421  -0.000003
    19  H   -0.003179   0.000050  -0.001921  -0.000040   0.000114  -0.000000
    20  H   -0.000396  -0.000020   0.000243  -0.000113  -0.000001  -0.000000
    21  H    0.000062   0.000011  -0.000248  -0.000016  -0.000002  -0.000000
    22  O    0.002022  -0.000078   0.001995  -0.000003  -0.000053   0.000000
    23  O   -0.001610   0.000419  -0.000817  -0.000001   0.000377   0.000001
    24  H    0.000091  -0.001181   0.000313   0.000008   0.000375  -0.000008
               7          8          9         10         11         12
     1  C    0.000816   0.000072   0.005323  -0.000188  -0.000018   0.000008
     2  C    0.000283   0.000226  -0.000164   0.000025  -0.000001  -0.000000
     3  C    0.002698  -0.000037   0.012544   0.003435  -0.000096   0.000037
     4  H   -0.000041   0.000007   0.000084   0.000003  -0.000000   0.000000
     5  C   -0.010959   0.001108  -0.008857   0.000112   0.000122  -0.000002
     6  H   -0.000069  -0.000002   0.000004   0.000000  -0.000000   0.000000
     7  C   -0.087357   0.000383   0.004192   0.000659  -0.000256  -0.000060
     8  H    0.000383  -0.016292   0.000076   0.000007  -0.000001  -0.000000
     9  C    0.004192   0.000076   0.133954  -0.005767  -0.004257  -0.000663
    10  C    0.000659   0.000007  -0.005767  -0.060539   0.004616   0.000264
    11  C   -0.000256  -0.000001  -0.004257   0.004616   0.081612  -0.000043
    12  H   -0.000060  -0.000000  -0.000663   0.000264  -0.000043   0.002943
    13  C    0.002994  -0.000271   0.001390  -0.000060  -0.002972   0.000006
    14  C    0.002223  -0.000005   0.000207   0.001258  -0.002082  -0.000007
    15  H    0.000370  -0.000079   0.000044  -0.000001   0.000018  -0.000000
    16  H   -0.000007  -0.000000   0.000051   0.000151   0.000076  -0.000009
    17  H   -0.000033  -0.000000   0.000005  -0.000015  -0.000178  -0.000001
    18  C   -0.000246   0.000000  -0.011958   0.001198   0.000114  -0.000012
    19  H   -0.000025   0.000000  -0.000620  -0.000001   0.000008  -0.000003
    20  H    0.000012  -0.000000   0.000029  -0.000027  -0.000000   0.000009
    21  H    0.000018   0.000000   0.000016  -0.000037  -0.000021   0.000169
    22  O    0.000007  -0.000000   0.000334  -0.000020  -0.000001   0.000000
    23  O   -0.000056  -0.000001  -0.001387   0.000080   0.000013  -0.000000
    24  H   -0.000127   0.000004  -0.000051  -0.000003   0.000000  -0.000000
              13         14         15         16         17         18
     1  C    0.000096   0.000002   0.000000  -0.000000  -0.000000  -0.027269
     2  C    0.000008   0.000005  -0.000009   0.000000   0.000000   0.000108
     3  C   -0.000089  -0.000028   0.000001   0.000002   0.000000  -0.033537
     4  H   -0.000000   0.000000  -0.000000   0.000000  -0.000000  -0.000341
     5  C   -0.007156   0.000020  -0.000175  -0.000000  -0.000002   0.000421
     6  H   -0.000001   0.000000   0.000000   0.000000  -0.000000  -0.000003
     7  C    0.002994   0.002223   0.000370  -0.000007  -0.000033  -0.000246
     8  H   -0.000271  -0.000005  -0.000079  -0.000000  -0.000000   0.000000
     9  C    0.001390   0.000207   0.000044   0.000051   0.000005  -0.011958
    10  C   -0.000060   0.001258  -0.000001   0.000151  -0.000015   0.001198
    11  C   -0.002972  -0.002082   0.000018   0.000076  -0.000178   0.000114
    12  H    0.000006  -0.000007  -0.000000  -0.000009  -0.000001  -0.000012
    13  C    0.068266   0.001229   0.000010   0.000010  -0.000126  -0.000016
    14  C    0.001229  -0.053173   0.000169   0.000155   0.000127  -0.000001
    15  H    0.000010   0.000169  -0.003211   0.000002  -0.000012   0.000000
    16  H    0.000010   0.000155   0.000002  -0.003974  -0.000001   0.000000
    17  H   -0.000126   0.000127  -0.000012  -0.000001   0.002126  -0.000000
    18  C   -0.000016  -0.000001   0.000000   0.000000  -0.000000   0.686195
    19  H   -0.000004  -0.000000  -0.000000  -0.000000   0.000000   0.020164
    20  H   -0.000000  -0.000000   0.000000   0.000000   0.000000  -0.001369
    21  H    0.000000   0.000000   0.000000  -0.000000  -0.000000  -0.000844
    22  O    0.000001   0.000000   0.000000   0.000000  -0.000000  -0.004555
    23  O   -0.000023  -0.000002   0.000000  -0.000000   0.000000   0.000825
    24  H   -0.000007   0.000001  -0.000000   0.000000  -0.000000   0.000009
              19         20         21         22         23         24
     1  C   -0.003179  -0.000396   0.000062   0.002022  -0.001610   0.000091
     2  C    0.000050  -0.000020   0.000011  -0.000078   0.000419  -0.001181
     3  C   -0.001921   0.000243  -0.000248   0.001995  -0.000817   0.000313
     4  H   -0.000040  -0.000113  -0.000016  -0.000003  -0.000001   0.000008
     5  C    0.000114  -0.000001  -0.000002  -0.000053   0.000377   0.000375
     6  H   -0.000000  -0.000000  -0.000000   0.000000   0.000001  -0.000008
     7  C   -0.000025   0.000012   0.000018   0.000007  -0.000056  -0.000127
     8  H    0.000000  -0.000000   0.000000  -0.000000  -0.000001   0.000004
     9  C   -0.000620   0.000029   0.000016   0.000334  -0.001387  -0.000051
    10  C   -0.000001  -0.000027  -0.000037  -0.000020   0.000080  -0.000003
    11  C    0.000008  -0.000000  -0.000021  -0.000001   0.000013   0.000000
    12  H   -0.000003   0.000009   0.000169   0.000000  -0.000000  -0.000000
    13  C   -0.000004  -0.000000   0.000000   0.000001  -0.000023  -0.000007
    14  C   -0.000000  -0.000000   0.000000   0.000000  -0.000002   0.000001
    15  H   -0.000000   0.000000   0.000000   0.000000   0.000000  -0.000000
    16  H   -0.000000   0.000000  -0.000000   0.000000  -0.000000   0.000000
    17  H    0.000000   0.000000  -0.000000  -0.000000   0.000000  -0.000000
    18  C    0.020164  -0.001369  -0.000844  -0.004555   0.000825   0.000009
    19  H   -0.067156   0.000099  -0.000092  -0.003765   0.004394  -0.000072
    20  H    0.000099  -0.029686   0.001154   0.000019  -0.000002  -0.000000
    21  H   -0.000092   0.001154  -0.030791   0.000007  -0.000002   0.000000
    22  O   -0.003765   0.000019   0.000007   0.102681  -0.010380   0.000165
    23  O    0.004394  -0.000002  -0.000002  -0.010380   0.022991   0.000167
    24  H   -0.000072  -0.000000   0.000000   0.000165   0.000167  -0.001504
 Mulliken charges and spin densities:
               1          2
     1  C   -0.138226   0.348318
     2  C   -0.151903  -0.142898
     3  C    0.076821  -0.191500
     4  H    0.131601  -0.015654
     5  C   -0.149052   0.321605
     6  H    0.136306   0.003973
     7  C    0.060534  -0.084578
     8  H    0.131307  -0.014803
     9  C    0.060424   0.124528
    10  C   -0.131075  -0.054850
    11  C   -0.127227   0.076652
    12  H    0.119019   0.002635
    13  C   -0.139911   0.063285
    14  C   -0.119614  -0.049903
    15  H    0.124869  -0.002871
    16  H    0.128125  -0.003546
    17  H    0.128306   0.001888
    18  C   -0.354477   0.628883
    19  H    0.266211  -0.052048
    20  H    0.148084  -0.030049
    21  H    0.144073  -0.030614
    22  O   -0.340938   0.088377
    23  O   -0.348149   0.014988
    24  H    0.344890  -0.001819
 Sum of Mulliken charges =  -0.00000   1.00000
 Mulliken charges and spin densities with hydrogens summed into heavy atoms:
               1          2
     1  C   -0.006624   0.332664
     2  C   -0.015597  -0.138925
     3  C    0.076821  -0.191500
     5  C   -0.017744   0.306801
     7  C    0.060534  -0.084578
     9  C    0.060424   0.124528
    10  C   -0.012056  -0.052214
    11  C    0.000898   0.073106
    13  C   -0.015041   0.060414
    14  C    0.008692  -0.048015
    18  C   -0.062320   0.568220
    22  O   -0.074727   0.036328
    23  O   -0.003259   0.013169
 APT charges:
               1
     1  C   -0.497628
     2  C   -0.553432
     3  C   -0.403510
     4  H    0.609443
     5  C   -0.489908
     6  H    0.685141
     7  C   -0.387069
     8  H    0.587896
     9  C   -0.424548
    10  C   -0.499869
    11  C   -0.450193
    12  H    0.466703
    13  C   -0.499905
    14  C   -0.469145
    15  H    0.579573
    16  H    0.720709
    17  H    0.783237
    18  C   -0.736451
    19  H    0.225807
    20  H    0.626075
    21  H    0.434965
    22  O   -0.461629
    23  O   -0.173672
    24  H    0.327410
 Sum of APT charges =  -0.00000
 APT charges with hydrogens summed into heavy atoms:
               1
     1  C    0.111815
     2  C    0.131709
     3  C   -0.403510
     5  C    0.097988
     7  C   -0.387069
     9  C   -0.424548
    10  C   -0.033166
    11  C    0.270516
    13  C    0.079668
    14  C    0.314092
    18  C    0.324590
    22  O   -0.235821
    23  O    0.153738
 Electronic spatial extent (au):  <R**2>=           2224.6366
 Charge=             -0.0000 electrons
 Dipole moment (field-independent basis, Debye):
    X=             -1.8349    Y=              0.7284    Z=             -3.1297  Tot=              3.7004
 Quadrupole moment (field-independent basis, Debye-Ang):
   XX=            -72.6868   YY=            -63.8333   ZZ=            -86.2971
   XY=              2.0823   XZ=            -11.6175   YZ=              4.2372
 Traceless Quadrupole moment (field-independent basis, Debye-Ang):
   XX=              1.5856   YY=             10.4391   ZZ=            -12.0247
   XY=              2.0823   XZ=            -11.6175   YZ=              4.2372
 Octapole moment (field-independent basis, Debye-Ang**2):
  XXX=            -14.3670  YYY=             -0.0838  ZZZ=              2.2737  XYY=              5.5774
  XXY=              1.5896  XXZ=             -9.6514  XZZ=             -3.3538  YZZ=              3.0702
  YYZ=              3.3670  XYZ=              4.5568
 Hexadecapole moment (field-independent basis, Debye-Ang**3):
 XXXX=          -1522.8266 YYYY=           -732.1367 ZZZZ=           -592.1578 XXXY=             16.3971
 XXXZ=            -82.5466 YYYX=              3.6524 YYYZ=              8.7952 ZZZX=             -5.3660
 ZZZY=              7.6774 XXYY=           -359.1450 XXZZ=           -383.3367 YYZZ=           -230.2150
 XXYZ=             14.1692 YYXZ=             -4.1675 ZZXY=              6.0882
 N-N= 7.559877079741D+02 E-N=-2.851684812927D+03  KE= 5.707095068251D+02
  Exact polarizability:   0.000   0.000   0.000   0.000   0.000   0.000
 Approx polarizability: 203.799  -3.010 210.517 -39.643  19.676 102.415
                          Isotropic Fermi Contact Couplings
        Atom                 a.u.       MegaHertz       Gauss      10(-4) cm-1
     1  C(13)              0.06095      68.52490      24.45139      22.85745
     2  C(13)             -0.03400     -38.22087     -13.63816     -12.74911
     3  C(13)             -0.04944     -55.58007     -19.83235     -18.53952
     4  H(1)              -0.00531     -23.72884      -8.46704      -7.91509
     5  C(13)              0.05427      61.00471      21.76800      20.34898
     6  H(1)               0.00139       6.21055       2.21608       2.07162
     7  C(13)             -0.02218     -24.93637      -8.89792      -8.31788
     8  H(1)              -0.00498     -22.25251      -7.94025      -7.42264
     9  C(13)              0.02388      26.84326       9.57834       8.95395
    10  C(13)             -0.01297     -14.57678      -5.20136      -4.86229
    11  C(13)              0.01357      15.25009       5.44161       5.08688
    12  H(1)               0.00060       2.66475       0.95085       0.88887
    13  C(13)              0.01201      13.50133       4.81761       4.50356
    14  C(13)             -0.01046     -11.75503      -4.19449      -3.92105
    15  H(1)              -0.00099      -4.42936      -1.58050      -1.47747
    16  H(1)              -0.00116      -5.18584      -1.85044      -1.72981
    17  H(1)               0.00062       2.75516       0.98311       0.91902
    18  C(13)              0.10080     113.31778      40.43460      37.79874
    19  H(1)              -0.02120     -94.74297     -33.80665     -31.60285
    20  H(1)              -0.00937     -41.87949     -14.94364     -13.96950
    21  H(1)              -0.00937     -41.89217     -14.94817     -13.97372
    22  O(17)             -0.00930       5.63544       2.01087       1.87978
    23  O(17)              0.00422      -2.55691      -0.91237      -0.85289
    24  H(1)              -0.00047      -2.10189      -0.75001      -0.70111
 --------------------------------------------------------
       Center         ----  Spin Dipole Couplings  ----
                      3XX-RR        3YY-RR        3ZZ-RR
 --------------------------------------------------------
     1   Atom       -0.101423     -0.152494      0.253917
     2   Atom        0.032044      0.045621     -0.077665
     3   Atom        0.035218      0.071310     -0.106528
     4   Atom        0.019692     -0.018240     -0.001452
     5   Atom       -0.099058     -0.136855      0.235912
     6   Atom        0.001699      0.001579     -0.003278
     7   Atom        0.018187      0.027315     -0.045502
     8   Atom       -0.014186      0.016557     -0.002371
     9   Atom       -0.033325     -0.052225      0.085550
    10   Atom        0.018303      0.016748     -0.035052
    11   Atom       -0.020566     -0.033173      0.053739
    12   Atom        0.006809     -0.004073     -0.002736
    13   Atom       -0.016940     -0.027590      0.044530
    14   Atom        0.013142      0.019974     -0.033117
    15   Atom        0.000026      0.001573     -0.001599
    16   Atom        0.000531      0.000786     -0.001317
    17   Atom       -0.000961      0.002268     -0.001307
    18   Atom       -0.182413     -0.275921      0.458333
    19   Atom       -0.015027     -0.007066      0.022093
    20   Atom        0.036777     -0.038164      0.001387
    21   Atom       -0.014996      0.021855     -0.006859
    22   Atom       -0.060318      0.015485      0.044833
    23   Atom       -0.053021     -0.003258      0.056279
    24   Atom       -0.003643      0.000636      0.003007
 --------------------------------------------------------
                        XY            XZ            YZ
 --------------------------------------------------------
     1   Atom       -0.020532      0.150760     -0.050745
     2   Atom       -0.001128     -0.048531      0.018442
     3   Atom        0.000111     -0.059252      0.019599
     4   Atom       -0.002218     -0.009448     -0.001069
     5   Atom       -0.022374      0.140662     -0.046011
     6   Atom       -0.003882     -0.002889      0.002034
     7   Atom        0.004732     -0.026753      0.009107
     8   Atom       -0.015752      0.002307      0.008194
     9   Atom       -0.007992      0.051139     -0.015696
    10   Atom        0.003851     -0.022354      0.005887
    11   Atom       -0.001632      0.032511     -0.011383
    12   Atom        0.004334     -0.003223     -0.001504
    13   Atom       -0.003623      0.026384     -0.008938
    14   Atom        0.003197     -0.019922      0.006285
    15   Atom       -0.003202     -0.001131      0.001625
    16   Atom        0.005445      0.000116     -0.001796
    17   Atom        0.000822      0.000022      0.000131
    18   Atom       -0.023924      0.271926     -0.080731
    19   Atom        0.007180      0.015327      0.018241
    20   Atom       -0.004506     -0.014906     -0.001784
    21   Atom        0.036272      0.008173     -0.010776
    22   Atom        0.144272      0.157470      0.198410
    23   Atom        0.028420      0.042955      0.064010
    24   Atom       -0.003445      0.002024     -0.001245
 --------------------------------------------------------


 ---------------------------------------------------------------------------------
              Anisotropic Spin Dipole Couplings in Principal Axis System
 ---------------------------------------------------------------------------------

       Atom             a.u.   MegaHertz   Gauss  10(-4) cm-1        Axes

              Baa    -0.1599   -21.456    -7.656    -7.157  0.4980  0.8639 -0.0755
     1 C(13)  Bbb    -0.1558   -20.901    -7.458    -6.972  0.7966 -0.4901 -0.3539
              Bcc     0.3157    42.358    15.114    14.129  0.3427 -0.1161  0.9322
 
              Baa    -0.0980   -13.155    -4.694    -4.388  0.3463 -0.1168  0.9308
     2 C(13)  Bbb     0.0413     5.548     1.980     1.851  0.6301  0.7641 -0.1385
              Bcc     0.0567     7.607     2.714     2.537  0.6950 -0.6345 -0.3382
 
              Baa    -0.1297   -17.409    -6.212    -5.807  0.3367 -0.0915  0.9372
     3 C(13)  Bbb     0.0544     7.302     2.606     2.436  0.8979  0.3308 -0.2903
              Bcc     0.0753    10.107     3.606     3.371 -0.2835  0.9392  0.1936
 
              Baa    -0.0185    -9.895    -3.531    -3.301  0.0843  0.9905  0.1085
     4 H(1)   Bbb    -0.0048    -2.573    -0.918    -0.858  0.3462 -0.1312  0.9290
              Bcc     0.0234    12.468     4.449     4.159  0.9344 -0.0407 -0.3539
 
              Baa    -0.1530   -20.531    -7.326    -6.849  0.8526  0.4566 -0.2543
     5 C(13)  Bbb    -0.1402   -18.809    -6.711    -6.274 -0.3959  0.8819  0.2560
              Bcc     0.2932    39.340    14.038    13.123  0.3412 -0.1175  0.9326
 
              Baa    -0.0046    -2.464    -0.879    -0.822  0.3831 -0.0625  0.9216
     6 H(1)   Bbb    -0.0021    -1.132    -0.404    -0.378  0.6170  0.7598 -0.2050
              Bcc     0.0067     3.596     1.283     1.199  0.6874 -0.6471 -0.3297
 
              Baa    -0.0565    -7.580    -2.705    -2.528  0.3416 -0.1206  0.9321
     7 C(13)  Bbb     0.0269     3.608     1.287     1.204  0.7099 -0.6168 -0.3400
              Bcc     0.0296     3.972     1.417     1.325  0.6159  0.7779 -0.1251
 
              Baa    -0.0223   -11.903    -4.247    -3.970  0.8714  0.4100 -0.2693
     8 H(1)   Bbb    -0.0025    -1.360    -0.485    -0.454  0.3430 -0.1169  0.9320
              Bcc     0.0249    13.263     4.733     4.424 -0.3506  0.9046  0.2425
 
              Baa    -0.0555    -7.441    -2.655    -2.482  0.5379  0.8368 -0.1019
     9 C(13)  Bbb    -0.0510    -6.844    -2.442    -2.283  0.7683 -0.5364 -0.3494
              Bcc     0.1065    14.285     5.097     4.765  0.3470 -0.1096  0.9314
 
              Baa    -0.0440    -5.898    -2.105    -1.967  0.3419 -0.1122  0.9330
    10 C(13)  Bbb     0.0172     2.314     0.826     0.772 -0.1231  0.9790  0.1628
              Bcc     0.0267     3.584     1.279     1.196  0.9316  0.1705 -0.3209
 
              Baa    -0.0362    -4.858    -1.733    -1.620 -0.5158  0.8067  0.2885
    11 C(13)  Bbb    -0.0310    -4.161    -1.485    -1.388  0.7833  0.5805 -0.2225
              Bcc     0.0672     9.019     3.218     3.008  0.3470 -0.1112  0.9313
 
              Baa    -0.0057    -3.015    -1.076    -1.006 -0.2832  0.9432  0.1735
    12 H(1)   Bbb    -0.0037    -1.979    -0.706    -0.660  0.3210 -0.0772  0.9439
              Bcc     0.0094     4.994     1.782     1.666  0.9037  0.3231 -0.2809
 
              Baa    -0.0288    -3.858    -1.377    -1.287  0.1721  0.9834  0.0580
    13 C(13)  Bbb    -0.0267    -3.579    -1.277    -1.194  0.9226 -0.1402 -0.3595
              Bcc     0.0554     7.437     2.654     2.481  0.3454 -0.1154  0.9314
 
              Baa    -0.0413    -5.544    -1.978    -1.849  0.3472 -0.1136  0.9309
    14 C(13)  Bbb     0.0198     2.663     0.950     0.888  0.6830 -0.6496 -0.3340
              Bcc     0.0215     2.881     1.028     0.961  0.6426  0.7518 -0.1480
 
              Baa    -0.0025    -1.352    -0.482    -0.451  0.6825  0.6580 -0.3182
    15 H(1)   Bbb    -0.0022    -1.162    -0.415    -0.388  0.4362 -0.0173  0.8997
              Bcc     0.0047     2.515     0.897     0.839 -0.5865  0.7528  0.2989
 
              Baa    -0.0053    -2.805    -1.001    -0.936 -0.6501  0.6840  0.3309
    16 H(1)   Bbb    -0.0010    -0.556    -0.198    -0.185  0.3470 -0.1201  0.9301
              Bcc     0.0063     3.361     1.199     1.121  0.6760  0.7195 -0.1593
 
              Baa    -0.0013    -0.700    -0.250    -0.234  0.0477 -0.0476  0.9977
    17 H(1)   Bbb    -0.0012    -0.618    -0.220    -0.206  0.9713 -0.2309 -0.0574
              Bcc     0.0025     1.318     0.470     0.440  0.2331  0.9718  0.0352
 
              Baa    -0.2887   -38.743   -13.825   -12.923 -0.5719  0.7669  0.2911
    18 C(13)  Bbb    -0.2778   -37.284   -13.304   -12.436  0.7454  0.6340 -0.2058
              Bcc     0.5666    76.027    27.128    25.360  0.3424 -0.0993  0.9343
 
              Baa    -0.0206   -10.991    -3.922    -3.666  0.9494 -0.1043 -0.2963
    19 H(1)   Bbb    -0.0158    -8.448    -3.014    -2.818 -0.0324  0.9058 -0.4226
              Bcc     0.0364    19.438     6.936     6.484  0.3124  0.4108  0.8565
 
              Baa    -0.0386   -20.609    -7.354    -6.874  0.0736  0.9947  0.0718
    20 H(1)   Bbb    -0.0038    -2.004    -0.715    -0.668  0.3346 -0.0924  0.9378
              Bcc     0.0424    22.613     8.069     7.543  0.9395 -0.0450 -0.3396
 
              Baa    -0.0418   -22.319    -7.964    -7.445  0.7907 -0.5081 -0.3414
    21 H(1)   Bbb    -0.0028    -1.477    -0.527    -0.493  0.3423 -0.0952  0.9347
              Bcc     0.0446    23.796     8.491     7.938  0.5075  0.8560 -0.0986
 
              Baa    -0.1739    12.583     4.490     4.197  0.8570 -0.1306 -0.4985
    22 O(17)  Bbb    -0.1685    12.190     4.350     4.066 -0.2146  0.7891 -0.5756
              Bcc     0.3424   -24.774    -8.840    -8.264  0.4685  0.6002  0.6482
 
              Baa    -0.0690     4.994     1.782     1.666  0.9546 -0.1870 -0.2318
    23 O(17)  Bbb    -0.0441     3.188     1.138     1.063  0.0311  0.8366 -0.5470
              Bcc     0.1131    -8.182    -2.919    -2.729  0.2962  0.5150  0.8044
 
              Baa    -0.0057    -3.054    -1.090    -1.019  0.8818  0.4502 -0.1403
    24 H(1)   Bbb     0.0008     0.420     0.150     0.140 -0.2642  0.7181  0.6438
              Bcc     0.0049     2.634     0.940     0.879  0.3906 -0.5307  0.7522
 

 ---------------------------------------------------------------------------------

 Calling FoFJK, ICntrl=    100147 FMM=F ISym2X=0 I1Cent= 0 IOpClX= 1 NMat=1 NMatS=1 NMatT=0.
 ***** Axes restored to original set *****
 -------------------------------------------------------------------
 Center     Atomic                   Forces (Hartrees/Bohr)
 Number     Number              X              Y              Z
 -------------------------------------------------------------------
      1        6           0.001660550    0.000248609   -0.000695593
      2        6           0.002162850    0.001037222   -0.000795766
      3        6          -0.004074219    0.004375415   -0.000229119
      4        1           0.002278252   -0.000261718   -0.000542036
      5        6          -0.002485571    0.000548206    0.000821324
      6        1           0.001561018    0.001907683   -0.000339242
      7        6          -0.000060057    0.001339821    0.000274205
      8        1          -0.000853331    0.002239770    0.000600314
      9        6           0.000993357   -0.000997164    0.000086532
     10        6           0.001686782   -0.001066600   -0.000867920
     11        6          -0.001982401   -0.000589730    0.000637599
     12        1           0.000735306   -0.002538492   -0.000523945
     13        6           0.000556961    0.002170443    0.000048587
     14        6          -0.002119373   -0.000955507    0.000612789
     15        1          -0.000649447    0.002329445    0.000506233
     16        1          -0.001501131   -0.002040705    0.000293658
     17        1          -0.002314316    0.000239757    0.000945550
     18        6           0.005845618   -0.003187746    0.008757620
     19        1           0.033272994    0.056825817    0.072404505
     20        1           0.001721899   -0.000130675   -0.002437663
     21        1          -0.001372273   -0.002347496   -0.000508337
     22        8          -0.036943531   -0.060205388   -0.078637292
     23        8           0.005321375    0.048190069   -0.030576972
     24        1          -0.003441310   -0.047131036    0.030164968
 -------------------------------------------------------------------
 Cartesian Forces:  Max     0.078637292 RMS     0.019521720
 FormGI is forming the generalized inverse of G from B-inverse, IUseBI=4.

 GradGradGradGradGradGradGradGradGradGradGradGradGradGradGradGradGradGrad
 Berny optimization.
 Internal  Forces:  Max     0.104755396 RMS     0.010726101
 Search for a saddle point.
 Step number   1 out of a maximum of  144
 All quantities printed in internal units (Hartrees-Bohrs-Radians)
 Swapping is turned off.
 Second derivative matrix not updated -- analytic derivatives used.
 ITU=  0
     Eigenvalues ---   -0.03702   0.00102   0.00155   0.00472   0.00554
     Eigenvalues ---    0.01100   0.01331   0.01468   0.01534   0.01631
     Eigenvalues ---    0.01794   0.01879   0.01909   0.02011   0.02047
     Eigenvalues ---    0.02090   0.02307   0.02404   0.02441   0.02499
     Eigenvalues ---    0.02588   0.02757   0.02804   0.03426   0.07994
     Eigenvalues ---    0.08653   0.09649   0.11010   0.11196   0.11847
     Eigenvalues ---    0.12246   0.12366   0.12623   0.12854   0.14567
     Eigenvalues ---    0.16567   0.18512   0.18892   0.19665   0.19896
     Eigenvalues ---    0.20282   0.20979   0.25817   0.26931   0.28689
     Eigenvalues ---    0.30240   0.30694   0.36371   0.36657   0.36948
     Eigenvalues ---    0.37133   0.37256   0.37397   0.37669   0.37830
     Eigenvalues ---    0.37959   0.38984   0.40859   0.41367   0.42829
     Eigenvalues ---    0.44655   0.46350   0.49049   0.51379   0.51751
     Eigenvalues ---    0.54218
 Eigenvectors required to have negative eigenvalues:
                          R24       R21       A38       D19       D20
   1                   -0.85384   0.41291   0.11730  -0.10765  -0.10420
                          R8        A9        A39       D10       D7
   1                    0.09783  -0.08414   0.08280   0.06906   0.06702
 RFO step:  Lambda0=6.925185408D-02 Lambda=-6.19506184D-02.
 Linear search not attempted -- option 19 set.
 Maximum step size (   0.300) exceeded in Quadratic search.
    -- Step size scaled by   0.278
 Iteration  1 RMS(Cart)=  0.03304031 RMS(Int)=  0.00575789
 Iteration  2 RMS(Cart)=  0.00755603 RMS(Int)=  0.00021290
 Iteration  3 RMS(Cart)=  0.00002520 RMS(Int)=  0.00021138
 Iteration  4 RMS(Cart)=  0.00000002 RMS(Int)=  0.00021138
 Variable       Old X    -DE/DX   Delta X   Delta X   Delta X     New X
                                 (Linear)    (Quad)   (Total)
    R1        2.63098   0.00375   0.00000   0.00220   0.00220   2.63318
    R2        2.67046   0.00435   0.00000  -0.00104  -0.00094   2.66952
    R3        2.04383   0.00234   0.00000   0.00148   0.00148   2.04531
    R4        2.60177   0.00539   0.00000   0.00205   0.00195   2.60371
    R5        2.04335   0.00249   0.00000   0.00152   0.00152   2.04487
    R6        2.75310   0.00330   0.00000  -0.00202  -0.00192   2.75118
    R7        2.62454   0.00731   0.00000   0.00990   0.01009   2.63463
    R8        4.37824  -0.00051   0.00000  -0.04666  -0.04659   4.33166
    R9        2.68624   0.00290   0.00000  -0.00037  -0.00047   2.68578
   R10        2.04471   0.00248   0.00000   0.00138   0.00138   2.04609
   R11        2.67742   0.00457   0.00000   0.00278   0.00280   2.68022
   R12        2.66991   0.00356   0.00000   0.00235   0.00235   2.67226
   R13        2.65888   0.00372   0.00000   0.00260   0.00262   2.66149
   R14        2.59344   0.00507   0.00000   0.00159   0.00158   2.59503
   R15        2.04103   0.00269   0.00000   0.00147   0.00147   2.04250
   R16        2.65544   0.00363   0.00000   0.00252   0.00251   2.65795
   R17        2.04279   0.00255   0.00000   0.00161   0.00161   2.04440
   R18        2.58559   0.00520   0.00000   0.00177   0.00176   2.58735
   R19        2.04596   0.00246   0.00000   0.00126   0.00126   2.04723
   R20        2.04188   0.00251   0.00000   0.00150   0.00150   2.04338
   R21        4.07835  -0.00543   0.00000  -0.26975  -0.26996   3.80838
   R22        2.04180   0.00250   0.00000   0.00177   0.00177   2.04357
   R23        2.03557   0.00266   0.00000   0.00204   0.00204   2.03760
   R24        2.62348  -0.10476   0.00000   0.06684   0.06684   2.69033
   R25        2.66611  -0.00122   0.00000  -0.01382  -0.01382   2.65229
   R26        1.97390  -0.05608   0.00000  -0.04270  -0.04270   1.93120
    A1        2.13036  -0.00009   0.00000  -0.00052  -0.00030   2.13006
    A2        2.08833   0.00002   0.00000   0.00016   0.00005   2.08837
    A3        2.06445   0.00007   0.00000   0.00034   0.00023   2.06468
    A4        2.10020  -0.00018   0.00000  -0.00043  -0.00041   2.09979
    A5        2.08651  -0.00002   0.00000   0.00001   0.00001   2.08651
    A6        2.09648   0.00020   0.00000   0.00041   0.00040   2.09688
    A7        2.05599   0.00005   0.00000   0.00128   0.00087   2.05686
    A8        2.07679  -0.00038   0.00000  -0.00248  -0.00200   2.07479
    A9        1.64794   0.00094   0.00000   0.05388   0.05296   1.70090
   A10        2.15025   0.00032   0.00000   0.00089   0.00065   2.15090
   A11        1.90292   0.00078   0.00000   0.01864   0.01809   1.92102
[...]
 0143733,0.00016822,-0.00010336,-0.00014574,0.00000871,0.00028142,0.000
 04944,-0.00042756,0.00000846,-0.00001380,0.00002716,-0.00097240,0.0005
 2733,0.00007649,-0.00001427,-0.00006257,0.00002442,-0.00415741,0.00230
 859,0.00415454,-0.00950532,-0.02613089,0.00830026,-0.12546019,-0.11173
 481,0.04463983,0.00038687,-0.00018183,-0.00187511,-0.00031206,0.003431
 74,0.00156120,0.01130105,0.01285523,-0.00456643,0.00046469,0.00076558,
 -0.00013980,0.12832161,-0.00011490,0.00011632,-0.00010033,0.00011722,-
 0.00003524,0.00000471,0.00002453,0.00022477,-0.00000570,0.00000673,0.0
 0001692,-0.00000773,-0.00024640,-0.00004903,-0.00006592,-0.00001750,-0
 .00000717,0.00001830,0.00092566,0.00035716,-0.00038216,0.00003144,0.00
 004802,-0.00001099,0.00162970,0.00119300,0.00060303,0.00360236,0.00616
 817,-0.00149871,-0.11280651,-0.24730565,0.06733294,-0.00043420,0.00056
 267,-0.00069884,0.00416209,-0.00347116,-0.00012575,-0.01648963,-0.0165
 5200,0.00841371,-0.00084622,-0.00102469,0.00035882,0.12041269,0.258954
 31,-0.00004788,-0.00015680,-0.00072100,0.00000029,0.00000862,0.0002110
 7,0.00020685,0.00044368,0.00019690,0.00001451,0.00002646,-0.00005246,-
 0.00028081,-0.00001187,-0.00089036,0.00002249,0.00001415,0.00007347,-0
 .00027085,-0.00022781,-0.00033338,0.00001046,0.00001834,0.00004075,0.0
 0374848,-0.00018836,0.00766684,0.00472529,0.00892052,0.00123892,0.0442
 7582,0.06783009,-0.06095373,-0.00162177,-0.00104283,-0.00450983,0.0015
 5120,0.00020141,0.00482333,-0.00029046,-0.00228018,0.00354276,0.000042
 36,-0.00007367,0.00015114,-0.05113762,-0.07325836,0.05189227,0.0000854
 3,-0.00012837,0.00004430,-0.00027175,-0.00031622,-0.00013009,-0.000108
 99,0.00011190,-0.00029772,-0.00001607,0.00000037,0.00003059,-0.0004875
 6,0.00055603,0.00020680,-0.00008340,0.00000947,0.00001761,0.00156826,-
 0.00264330,0.00273187,0.00002337,-0.00004062,0.00004704,0.00059521,0.0
 0001226,-0.00033031,0.00117544,0.00284387,0.00101474,-0.00820539,-0.00
 221883,0.00401810,-0.00050321,-0.00011835,0.00023625,-0.01057921,0.003
 80902,0.00427709,-0.31479582,0.02074538,0.08721821,0.00016702,-0.00035
 191,-0.00168930,0.00020053,0.00004871,-0.00106742,0.33122655,0.0001217
 0,-0.00037015,0.00001819,-0.00048673,-0.00022379,0.00007442,0.00027591
 ,0.00023075,-0.00020910,0.00000041,0.00001895,0.00001122,-0.00081532,0
 .00091463,0.00022860,-0.00014335,0.00001327,0.00003431,-0.00170146,-0.
 00448743,0.00202758,0.00002235,-0.00002559,0.00001611,-0.00059600,-0.0
 0123480,0.00031314,0.00218279,-0.00509056,0.00075244,0.02759117,0.0037
 7441,-0.00926070,0.00137466,-0.00000917,-0.00049450,-0.02602397,0.0068
 2295,0.00813217,0.02098751,-0.06151589,-0.00332293,0.00023009,0.000784
 80,-0.00074269,-0.00077974,0.00086587,-0.00026836,-0.02224513,0.059427
 19,0.00000144,0.00003343,0.00018040,-0.00013155,0.00010759,-0.00069192
 ,-0.00027536,-0.00009738,-0.00088975,0.00003403,-0.00000305,0.00008079
 ,0.00045585,-0.00025607,0.00017242,0.00004263,-0.00000596,-0.00002810,
 0.00269851,0.00230796,0.00797477,0.00003340,0.00002719,0.00013886,-0.0
 0020959,0.00019340,-0.00030336,0.00108038,0.00041223,0.00502824,0.0003
 5226,0.00070202,0.00266783,0.00007209,0.00008132,0.00007272,0.00795296
 ,-0.00177589,0.00137151,0.08695299,-0.00327004,-0.06518433,-0.00177218
 ,-0.00051263,-0.00446203,-0.00097513,-0.00059842,-0.00256122,-0.096323
 24,0.00267646,0.05641488,0.01727871,0.00309578,-0.00056198,0.00521118,
 -0.00790683,0.00210973,-0.13008352,0.05537155,0.01659221,-0.00006332,-
 0.00180043,-0.00203081,-0.00384059,0.00050890,0.00089158,0.00056604,-0
 .00127087,-0.00018880,-0.00497427,-0.00498316,0.00345974,0.00007161,0.
 00005284,-0.00038984,-0.02473216,0.02850179,0.00678159,0.00170579,0.00
 274124,-0.00165669,-0.00156045,0.00213771,0.00006493,-0.00228588,0.000
 86667,0.00183105,0.00053920,0.00217061,-0.00046144,-0.00029308,-0.0013
 2734,0.00009691,-0.00041287,0.00002084,0.00018951,0.00008923,0.0000111
 3,0.00009252,0.00004579,0.00000639,0.00003173,0.57136121,0.00524891,-0
 .06267586,0.00034973,-0.01404980,0.00687043,0.00429468,0.06381546,-0.2
 0071284,-0.01595742,0.00182841,0.00097392,-0.00111252,0.00486616,-0.00
 275510,-0.00121497,0.00046578,-0.00042675,0.00012115,0.00037079,0.0069
 3123,-0.00019126,0.00001657,0.00006903,-0.00016287,0.02523057,0.003504
 88,-0.00764840,-0.00805669,-0.00356891,0.00280543,0.00477033,-0.003715
 64,-0.00092585,-0.00024456,-0.00052182,-0.00002001,-0.00309870,-0.0014
 4628,0.00115731,0.00005099,0.00425151,-0.00060953,-0.00019294,0.000061
 96,0.00003392,-0.00011295,-0.00007746,0.00006364,-0.00007824,-0.000004
 86,-0.00001216,0.05858160,0.53916697,0.00590941,0.02098087,0.00521513,
 0.00844837,-0.00412243,0.00366938,0.03281381,-0.06305870,-0.05778006,-
 0.00133395,0.00086974,-0.00319529,-0.00272320,0.00165196,0.00005011,0.
 00000450,-0.00022474,-0.00003933,0.00190094,-0.00283352,0.00294191,-0.
 00010580,-0.00018739,-0.00067019,-0.00560755,-0.01060748,0.00635379,0.
 00383132,0.00320746,-0.00414046,-0.00255833,0.00086359,0.00039806,0.00
 199639,-0.00060893,0.00084654,0.00170730,0.00016625,-0.00055488,0.0001
 9617,-0.00229758,-0.00004092,0.00030365,-0.00006059,0.00011724,0.00016
 589,0.00012912,0.00016318,0.00014698,-0.00007897,0.00004288,-0.1216972
 6,0.12234086,0.23950987,-0.00142563,-0.00397592,0.00041228,-0.00201031
 ,0.00121231,0.00093752,-0.00555825,0.01227917,-0.00963626,-0.00008735,
 -0.00015745,-0.00005055,0.00090417,0.00036042,-0.00033943,-0.00001320,
 0.00008487,0.00003771,0.00044853,0.00057655,0.00027808,-0.00003770,-0.
 00003509,-0.00005267,0.00165594,0.00106796,-0.00028900,-0.00044887,0.0
 0032757,0.00042730,0.00020506,-0.00049210,0.00017708,-0.00061162,-0.00
 029039,-0.00057455,0.00001460,-0.00026322,0.00001293,-0.00004031,0.000
 13868,-0.00012745,0.00000744,-0.00000363,0.00001056,-0.00001717,-0.000
 00522,0.00003244,0.00000695,-0.00005019,-0.00000886,-0.01812968,-0.008
 71305,0.01664919,0.04425740,0.00129168,0.00055907,-0.00117030,0.000345
 91,-0.00033340,-0.00109154,0.00733416,-0.01353510,0.01530015,0.0000334
 2,-0.00004133,0.00061143,0.00011279,-0.00004190,0.00002837,0.00001899,
 -0.00007433,0.00007363,-0.00062412,-0.00110659,-0.00019675,0.00002375,
 0.00002957,0.00007907,-0.00153481,-0.00013733,-0.00024750,0.00043827,0
 .00102591,0.00019759,-0.00017441,0.00007973,0.00000796,-0.00007154,-0.
 00010504,-0.00015730,0.00019701,0.00015823,-0.00003722,-0.00002983,-0.
 00020191,0.00004855,-0.00002871,-0.00000369,0.00000413,-0.00003042,0.0
 0000646,-0.00000267,0.00001993,-0.00001553,0.,-0.00132971,-0.01894422,
 -0.00736340,-0.01339555,0.06322133,-0.01038157,-0.02483501,0.00152395,
 -0.01009005,0.00680577,0.00435352,-0.02177759,0.06199253,-0.00935389,-
 0.00010352,-0.00030829,-0.00124180,0.00396058,-0.00083518,-0.00114972,
 -0.00000871,0.00053464,0.00024535,0.00300724,0.00632150,-0.00032436,-0
 .00023359,-0.00002823,-0.00038758,0.01671415,0.00174203,-0.00461932,-0
 .00492098,-0.00399697,0.00194232,0.00355014,-0.00274144,-0.00037577,-0
 .00015769,-0.00052146,-0.00090974,-0.00226401,-0.00172363,0.00097442,0
 .00000943,0.00327836,-0.00046946,-0.00001962,0.00006484,-0.00002246,-0
 .00010892,-0.00010845,0.00004365,-0.00017973,0.00001045,-0.00004026,0.
 04653039,-0.07168752,0.08356728,-0.02627959,0.02368346,-0.09988399,0.0
 0032841,-0.00225981,-0.00101576,0.00016621,0.00025539,-0.00038194,-0.0
 1223941,-0.00172139,0.00675391,0.00074681,0.00051209,0.00023819,0.0001
 1410,-0.00021138,0.00003761,-0.00001196,0.00004991,0.00002216,-0.00076
 261,-0.00038348,0.00031485,0.00004558,0.00005225,0.00003168,0.00077757
 ,0.00262521,0.00076508,0.00023924,-0.00000745,-0.00000061,0.00005191,0
 .00009295,0.00008505,-0.00002682,0.00021507,-0.00032067,-0.00010720,0.
 00032605,-0.00006385,-0.00001846,0.00004539,-0.00001160,-0.00009935,0.
 00002285,-0.00000038,-0.00003845,-0.00000626,0.00002747,-0.00003151,0.
 00001718,-0.00000892,-0.27118445,-0.01330978,0.12160759,0.00164808,0.0
 0073946,-0.00757039,0.29023139,0.00191873,0.00072127,-0.00034546,-0.00
 031375,0.00019065,0.00000984,0.02515449,0.00360052,-0.01376022,-0.0005
 1126,-0.00089385,0.00015917,0.00005905,0.00004831,-0.00005709,-0.00001
 766,0.00001722,-0.00002512,0.00153136,0.00054221,-0.00030194,-0.000055
 64,-0.00001785,0.00004187,0.00091228,-0.00537015,-0.00022184,-0.000627
 15,-0.00105883,0.00051065,0.00013478,0.00035754,-0.00013647,-0.0001406
 1,0.00060312,-0.00007736,-0.00005757,-0.00050156,0.00009208,-0.0000992
 7,0.00010091,-0.00001329,0.00015346,-0.00000180,-0.00003559,0.00004525
 ,-0.00000318,-0.00000602,-0.00001005,0.00004968,0.00000635,-0.01841414
 ,-0.05205627,0.00248690,-0.00365250,-0.00057502,0.00326767,0.01219324,
 0.05341004,-0.00125053,-0.00007198,-0.00117923,-0.00013209,0.00000651,
 0.00004303,-0.00203379,0.00430042,-0.00003978,-0.00009622,-0.00048878,
 0.00022360,-0.00017193,-0.00028447,0.00014776,0.00000189,0.00000685,0.
 00002750,0.00013271,0.00058157,0.00014448,-0.00003426,0.00000770,0.000
 00149,0.00137038,0.00009579,0.00220317,-0.00048778,-0.00031539,0.00025
 703,0.00028277,-0.00003435,0.00008539,-0.00020269,-0.00001948,-0.00034
 392,-0.00024198,-0.00007063,-0.00006891,-0.00004131,0.00023151,-0.0000
 1984,-0.00001504,-0.00000581,-0.00003872,0.00000822,-0.00000222,0.0000
 0850,-0.00000588,0.00000884,-0.00002433,0.13243311,-0.00213894,-0.0946
 2889,0.01261380,0.00196524,-0.01769269,-0.13227949,-0.00288368,0.09947
 106,-0.00193340,0.00137519,0.00051898,0.00017292,0.00077206,-0.0005198
 1,0.01282729,0.01245041,0.00502978,0.00030549,0.00027231,-0.00009435,0
 .00028616,0.00020324,-0.00003097,-0.00011763,0.00020044,-0.00002133,0.
 00004102,-0.00025315,-0.00032400,0.00001951,-0.00001152,0.00004099,0.0
 0000070,-0.00055640,-0.00000407,-0.00024987,0.00003408,0.00036176,-0.0
 0038559,0.00027609,0.00000215,-0.00195957,0.00049940,0.00176401,0.0003
 0132,-0.00001455,-0.00011914,-0.00003847,-0.00030148,0.00022035,0.0000
 0902,-0.00000312,-0.00002577,-0.00001850,-0.00000635,-0.00004099,0.000
 00856,-0.00001053,-0.00000802,-0.13634236,-0.12446879,-0.04108712,-0.0
 0312212,-0.00376828,-0.00283076,-0.01078860,-0.01853441,-0.00984433,0.
 14091663,0.00352647,-0.00227261,-0.00221221,-0.00014279,-0.00083935,0.
 00119206,-0.01623746,-0.01963713,-0.00749946,-0.00006865,0.00010956,-0
 .00040566,-0.00018819,-0.00002552,-0.00003246,0.00022239,-0.00037199,0
 .00005403,0.00017322,-0.00052178,0.00032615,0.00004191,0.00000615,-0.0
 0009848,-0.00175484,0.00028031,0.00167238,-0.00013292,-0.00016553,0.00
 015741,0.00017839,0.00053787,0.00003470,-0.00035637,0.00128805,-0.0001
 0529,-0.00019843,0.00006387,0.00001530,-0.00005571,0.00012379,-0.00002
 316,0.00000619,-0.00000363,-0.00000369,0.00001643,-0.00000214,0.000011
 09,-0.00002066,0.00004962,-0.00002046,-0.11942745,-0.21463909,-0.07271
 132,0.00266314,0.00149380,0.00783926,0.00090133,0.00109254,-0.00046334
 ,0.13099583,0.23319598,-0.00045634,-0.00357496,0.00213640,-0.00175983,
 0.00166242,0.00022148,-0.00412016,0.01188419,0.00120876,-0.00012057,-0
 .00010835,0.00017532,0.00079110,-0.00052914,-0.00016517,-0.00004474,0.
 00005740,-0.00015260,0.00011702,0.00075330,-0.00021537,-0.00000097,0.0
 0006053,0.00006241,0.00192874,-0.00004647,-0.00161454,-0.00033329,-0.0
 0182212,0.00072149,0.00030858,0.00034335,-0.00023912,0.00164201,0.0003
 0782,-0.00118254,-0.00031372,0.00003887,0.00016432,-0.00014490,0.00035
 111,-0.00004689,-0.00002025,0.00002055,-0.00001064,0.00000317,-0.00003
 090,0.00001276,-0.00004403,0.00007509,0.00001605,-0.04155091,-0.087773
 36,-0.05161233,-0.01232496,-0.01012795,-0.02350619,0.00841653,0.012292
 39,0.00577410,0.04628582,0.07586482,0.05856834,-0.00107764,-0.00172471
 ,0.00075352,-0.00171741,0.00059621,0.00092111,-0.00034281,0.00406728,-
 0.00227056,0.00000148,-0.00006822,-0.00046199,0.00053762,0.00066304,-0
 .00026721,0.00001999,0.00018966,0.00000331,0.00052836,0.00113343,0.000
 00737,-0.00006206,-0.00003086,-0.00009768,0.00175837,0.00074754,-0.000
 08605,-0.00067396,-0.00100860,-0.00019707,0.00030700,-0.00030385,0.000
 17133,0.00053352,0.00004685,0.00024439,-0.00015959,-0.00034758,0.00011
 032,0.00006596,0.00024719,-0.00007078,-0.00000373,0.00004472,-0.000015
 29,-0.00003307,-0.00004163,-0.00000539,-0.00009278,0.00000919,-0.00000
 378,0.00342198,-0.00423685,-0.00167270,-0.02340320,0.01339867,-0.02452
 865,-0.00011161,0.00059189,-0.00208437,-0.00006351,0.00102566,-0.00133
 519,0.11172895,0.00290341,0.00625679,-0.00134440,0.00419363,-0.0016369
 5,-0.00216590,0.00251832,-0.01279211,0.00488782,0.00016705,0.00027307,
 0.00067265,-0.00136187,-0.00110740,0.00057976,-0.00001735,-0.00035987,
 -0.00005770,-0.00125304,-0.00257257,0.00007627,0.00015618,0.00009077,0
 .00020117,-0.00478364,-0.00182417,0.00148121,0.00285279,0.00082771,-0.
 00129339,-0.00128566,0.00154639,-0.00005786,0.00043450,0.00056214,0.00
 125546,0.00079395,0.00108593,-0.00041773,0.00004780,-0.00127048,0.0002
 4698,0.00001161,-0.00005115,0.00000716,0.00014846,0.00008371,-0.000031
 47,0.00012629,0.00003493,0.00000768,-0.00851918,0.01848465,-0.01864767
 ,0.01709061,-0.02959745,0.05240119,0.00157466,-0.00069384,0.00267030,0
 .00088940,-0.00157509,0.00505285,-0.12752069,0.28252570,0.00562156,0.0
 1104992,-0.00091502,0.00481574,-0.00298042,-0.00229008,0.01026951,-0.0
 3129518,0.00210056,0.00011497,0.00029535,0.00069515,-0.00140781,0.0001
 4888,0.00043117,0.00001880,-0.00036898,-0.00008949,-0.00171079,-0.0037
 3493,0.00008556,0.00015575,0.00002644,0.00022358,-0.00812549,-0.001608
 44,0.00240552,0.00276545,0.00225370,-0.00129333,-0.00186808,0.00147447
 ,0.00015568,0.00021048,0.00026735,0.00092236,0.00134625,0.00096107,-0.
 00057079,0.00008254,-0.00185700,0.00029206,0.00002701,-0.00004623,0.00
 000615,0.00008168,0.00007282,-0.00004512,0.00011675,-0.00001329,0.0000
 2690,-0.04597503,0.06340417,-0.13904756,0.00610106,0.00235691,0.100396
 30,0.00454059,-0.00104365,0.00776756,0.00035717,-0.00447797,0.01175373
 ,-0.01472477,0.04697207,0.08555415,0.00103004,0.00226672,-0.00063205,0
 .00203956,-0.00086444,-0.00089776,0.00090054,-0.00559809,0.00091522,0.
 00010366,0.00014245,0.00028650,-0.00077710,-0.00089744,0.00036659,0.00
 000053,-0.00015161,-0.00003324,0.00004927,-0.00127031,-0.00027166,0.00
 006187,0.00005420,0.00009042,-0.00308964,0.00002112,-0.00144645,-0.000
 77820,0.00053506,-0.00109811,0.00038078,0.00010024,-0.00041407,0.00034
 267,-0.00001787,0.00064946,-0.00031260,0.00006975,0.00013164,-0.000031
 23,0.00034157,0.00003133,-0.00000367,-0.00001715,0.00001745,0.00005725
 ,0.00002118,0.00001927,0.00005428,0.00002316,0.00001537,-0.00532723,0.
 01076970,-0.01721896,0.00531412,-0.00297083,0.03456671,0.00091021,-0.0
 0021022,0.00153212,0.00022395,-0.00115616,0.00288157,-0.10890980,0.075
 15561,0.03329347,0.40612183,-0.00244235,-0.00463068,0.00125354,-0.0035
 0082,0.00130679,0.00193585,-0.00216580,0.01218432,-0.00135138,-0.00018
 215,-0.00026794,-0.00070274,0.00086435,0.00108010,-0.00039941,0.000011
 37,0.00034490,-0.00000359,0.00123378,0.00281036,-0.00019013,-0.0001485
 3,-0.00008600,-0.00019674,0.00483769,0.00172910,-0.00012555,-0.0034864
 4,-0.00158409,0.00114240,0.00148011,-0.00163494,-0.00023831,0.00019035
 ,-0.00031832,-0.00067783,-0.00119413,-0.00096241,0.00055374,0.00004665
 ,0.00155965,-0.00026135,-0.00000902,0.00004890,-0.00002994,-0.00006674
 ,-0.00006798,0.00001306,-0.00012759,0.00000098,-0.00000767,0.01171569,
 -0.02079496,0.03245400,-0.00530585,-0.00059906,-0.06575784,-0.00187066
 ,0.00046605,-0.00327984,-0.00011464,0.00207345,-0.00532711,0.12093711,
 -0.21748929,-0.06886120,0.14992523,0.48762502,0.00002299,0.00165469,0.
 00009650,0.00025749,-0.00066786,0.00008364,0.00230420,-0.00412843,-0.0
 0001561,-0.00008462,-0.00012274,-0.00000958,-0.00006244,0.00088164,0.0
 0010262,-0.00000954,0.00015145,-0.00006866,0.00013026,-0.00100291,-0.0
 0012203,-0.00006889,0.00003293,-0.00003915,-0.00252338,0.00151567,-0.0
 0283318,-0.00040764,0.00076305,-0.00014116,-0.00001528,-0.00008140,0.0
 0004919,0.00021127,-0.00016368,-0.00021301,-0.00009223,-0.00019882,0.0
 0012244,-0.00019045,0.00011819,0.00007055,-0.00006615,0.00006000,-0.00
 000476,-0.00010701,-0.00005804,0.00000421,-0.00007777,0.00000462,-0.00
 000086,0.00415386,-0.00310650,0.00778536,0.01366035,-0.02023301,-0.031
 15867,-0.00137446,0.00017520,-0.00229663,0.00032332,0.00050236,-0.0015
 8882,0.05148676,-0.07260587,-0.06375227,-0.07750179,0.10352012,0.10768
 332,0.00054224,0.00039438,-0.00011087,0.00025484,0.00010290,-0.0001593
 3,-0.00014094,-0.00063276,0.00007990,-0.00007332,0.00001342,0.00019045
 ,-0.00018146,-0.00004773,0.00003018,0.00000965,-0.00007341,0.00001375,
 -0.00017100,-0.00005765,-0.00005568,0.00001378,0.00000270,0.00000644,-
 0.00053096,-0.00020090,0.00011906,0.00001503,-0.00007428,-0.00001423,0
 .00008242,0.00002893,-0.00011985,-0.00000152,0.00013585,0.00013936,-0.
 00011006,0.00009788,0.00007879,0.00004312,0.00003221,0.00000166,0.0000
 0502,-0.00001001,-0.00001647,0.00003696,0.00002139,-0.00000623,0.00001
 828,0.00000991,-0.00000703,-0.00106088,0.00054708,-0.00167663,0.000443
 12,0.00000418,0.00311673,0.00016091,-0.00005034,0.00054667,-0.00009295
 ,-0.00001133,0.00019532,0.01774794,0.03567714,0.00389321,-0.29836110,-
 0.27062759,0.01003114,0.28135088,-0.00010824,0.00043309,-0.00039741,0.
 00027492,-0.00025517,-0.00020403,0.00001249,-0.00040141,-0.00015633,0.
 00000171,0.00006654,0.00009066,0.00006169,-0.00020255,-0.00003014,-0.0
 0000150,-0.00007009,0.00005296,-0.00015725,-0.00027467,0.00008097,0.00
 002516,-0.00000258,0.00003946,-0.00045474,-0.00023859,-0.00015428,0.00
 044286,0.00031821,-0.00010892,-0.00027939,0.00021819,0.00011238,-0.000
 04839,-0.00009399,-0.00002265,0.00025979,0.00008772,-0.00014444,-0.000
 03739,-0.00027493,0.00003933,0.00001249,-0.00000902,0.00001580,-0.0000
 0812,-0.00000166,-0.00000265,0.00001607,-0.00001027,0.00000407,-0.0008
 0365,0.00202548,-0.00234804,0.00053888,-0.00126222,0.00460232,0.000147
 20,-0.00002773,0.00018417,0.00007475,-0.00026111,0.00057565,-0.0084154
 7,-0.04080142,-0.01299587,-0.22627189,-0.26279397,-0.00701068,0.234718
 03,0.30383214,0.00052871,0.00000048,0.00058891,-0.00022277,0.00066214,
 0.00008230,-0.00061618,0.00053124,-0.00031938,0.00007868,0.00004336,-0
 .00033619,0.00004857,-0.00009223,-0.00012419,-0.00000628,-0.00004871,0
 .00001675,0.00008877,0.00009993,-0.00002820,0.00005749,-0.00003422,0.0
 0000753,-0.00035057,0.00005492,0.00019335,-0.00026483,-0.00027375,-0.0
 0003606,0.00025670,-0.00010382,-0.00012943,0.00003550,0.00000401,0.000
 04568,-0.00021229,0.00000800,0.00006187,0.00007700,0.00022388,-0.00007
 005,0.00003556,-0.00003727,0.00001376,0.00004221,0.00001906,-0.0000026
 3,0.00003913,0.00000689,-0.00000207,-0.00074609,-0.00200958,0.00104920
 ,-0.00166701,-0.00372887,-0.00191089,0.00018735,-0.00013438,0.00017827
 ,0.00004632,0.00038393,-0.00048098,-0.00587662,-0.01989058,-0.00481277
 ,0.02471697,0.00653792,-0.01375343,-0.01627633,0.01777765,0.01976863\\
 -0.00001919,-0.00002250,-0.00000565,-0.00000037,0.00002321,0.00002731,
 0.00000872,0.00002949,0.00003325,0.00001414,0.00001133,0.00002278,0.00
 000372,-0.00000100,0.00003243,0.00001097,0.00000394,0.00004041,0.00000
 863,0.00001569,0.00001371,0.00000782,0.00000800,0.00004132,0.00001619,
 0.00000617,-0.00000355,-0.00000585,-0.00000222,-0.00002605,-0.00000087
 ,-0.00000975,-0.00001744,-0.00001277,0.00000277,-0.00002131,-0.0000048
 8,-0.00000418,0.00001038,0.00000211,0.00000808,-0.00001499,0.00000413,
 0.00000505,0.00001993,-0.00000720,-0.00000074,-0.00003454,-0.00000500,
 -0.00000142,0.00000020,-0.00001713,0.00000371,-0.00005927,0.00000091,0
 .00000033,-0.00001222,0.00000530,0.00000647,-0.00001356,0.00000210,0.0
 0000929,-0.00001974,-0.00001278,-0.00000677,-0.00001390,0.00000004,-0.
 00004894,0.00000634,0.00000126,-0.00003600,-0.00000585\\\@


 THE MOLECULE ALSO HAS A BODY.  WHEN THIS BODY IS HIT, THE MOLECULE
 FEELS HURT ALL OVER -- A. KITAIGORODSKI
 Job cpu time:       0 days  0 hours 52 minutes  6.8 seconds.
 Elapsed time:       0 days  0 hours  2 minutes 37.1 seconds.
 File lengths (MBytes):  RWF=   1440 Int=      0 D2E=      0 Chk=     32 Scr=     32
 Normal termination of Gaussian 16 at Tue Feb 26 11:05:02 2019.
