 Entering Gaussian System, Link 0=g16
 Input=rxn906loosebasis2.com
 Output=rxn906loosebasis2.log
 Initial command:
 /shared/centos7/gaussian/g16/l1.exe "/scratch/dinius.ab/QMscratch/Gau-391924.inp" -scrdir="/scratch/dinius.ab/QMscratch/"
 Default is to use a total of  20 processors:
                               20 via shared-memory
                                1 via Linda
 Entering Link 1 = /shared/centos7/gaussian/g16/l1.exe PID=    391925.
  
 Copyright (c) 1988,1990,1992,1993,1995,1998,2003,2009,2016,
            Gaussian, Inc.  All Rights Reserved.
  
 This is part of the Gaussian(R) 16 program.  It is based on
 the Gaussian(R) 09 system (copyright 2009, Gaussian, Inc.),
 the Gaussian(R) 03 system (copyright 2003, Gaussian, Inc.),
 the Gaussian(R) 98 system (copyright 1998, Gaussian, Inc.),
 the Gaussian(R) 94 system (copyright 1995, Gaussian, Inc.),
 the Gaussian 92(TM) system (copyright 1992, Gaussian, Inc.),
 the Gaussian 90(TM) system (copyright 1990, Gaussian, Inc.),
 the Gaussian 88(TM) system (copyright 1988, Gaussian, Inc.),
 the Gaussian 86(TM) system (copyright 1986, Carnegie Mellon
 University), and the Gaussian 82(TM) system (copyright 1983,
 Carnegie Mellon University). Gaussian is a federally registered
 trademark of Gaussian, Inc.
  
 This software contains proprietary and confidential information,
 including trade secrets, belonging to Gaussian, Inc.
  
 This software is provided under written license and may be
 used, copied, transmitted, or stored only in accord with that
 written license.
  
 The following legend is applicable only to US Government
 contracts under FAR:
  
                    RESTRICTED RIGHTS LEGEND
  
 Use, reproduction and disclosure by the US Government is
 subject to restrictions as set forth in subparagraphs (a)
 and (c) of the Commercial Computer Software - Restricted
 Rights clause in FAR 52.227-19.
  
 Gaussian, Inc.
 340 Quinnipiac St., Bldg. 40, Wallingford CT 06492
  
  
 ---------------------------------------------------------------
 Warning -- This program may not be used in any manner that
 competes with the business of Gaussian, Inc. or will provide
 assistance to any competitor of Gaussian, Inc.  The licensee
 of this program is prohibited from giving any competitor of
 Gaussian, Inc. access to this program.  By using this program,
 the user acknowledges that Gaussian, Inc. is engaged in the
 business of creating and licensing software in the field of
 computational chemistry and represents and warrants to the
 licensee that it is not a competitor of Gaussian, Inc. and that
 it will not use this program in any manner prohibited above.
 ---------------------------------------------------------------
  

 Cite this work as:
 Gaussian 16, Revision A.03,
 M. J. Frisch, G. W. Trucks, H. B. Schlegel, G. E. Scuseria, 
 M. A. Robb, J. R. Cheeseman, G. Scalmani, V. Barone, 
 G. A. Petersson, H. Nakatsuji, X. Li, M. Caricato, A. V. Marenich, 
 J. Bloino, B. G. Janesko, R. Gomperts, B. Mennucci, H. P. Hratchian, 
 J. V. Ortiz, A. F. Izmaylov, J. L. Sonnenberg, D. Williams-Young, 
 F. Ding, F. Lipparini, F. Egidi, J. Goings, B. Peng, A. Petrone, 
 T. Henderson, D. Ranasinghe, V. G. Zakrzewski, J. Gao, N. Rega, 
 G. Zheng, W. Liang, M. Hada, M. Ehara, K. Toyota, R. Fukuda, 
 J. Hasegawa, M. Ishida, T. Nakajima, Y. Honda, O. Kitao, H. Nakai, 
 T. Vreven, K. Throssell, J. A. Montgomery, Jr., J. E. Peralta, 
 F. Ogliaro, M. J. Bearpark, J. J. Heyd, E. N. Brothers, K. N. Kudin, 
 V. N. Staroverov, T. A. Keith, R. Kobayashi, J. Normand, 
 K. Raghavachari, A. P. Rendell, J. C. Burant, S. S. Iyengar, 
 J. Tomasi, M. Cossi, J. M. Millam, M. Klene, C. Adamo, R. Cammi, 
 J. W. Ochterski, R. L. Martin, K. Morokuma, O. Farkas, 
 J. B. Foresman, and D. J. Fox, Gaussian, Inc., Wallingford CT, 2016.
 
 ******************************************
 Gaussian 16:  EM64L-G16RevA.03 25-Dec-2016
                19-Mar-2019 
 ******************************************
 ----------------------------------------------------------------------
 # m062x/6-31G(d,p) Opt=(TS,Loose,maxcycle=1000,CalcFC,NoEigenTest) Int
 (Grid=SG1) freq
 ----------------------------------------------------------------------
 1/5=1,6=1000,7=-1,10=4,11=1,18=20,26=2,38=1/1,3;
 2/9=110,12=2,17=6,18=5,40=1/2;
 3/5=1,6=6,7=101,11=2,25=1,30=1,71=2,74=-55,75=1,140=1/1,2,3;
 4//1;
 5/5=2,38=5/2;
 8/6=4,10=90,11=11/1;
 11/6=1,8=1,9=11,15=111,16=1/1,2,10;
 10/6=1,13=1/2;
 6/7=2,8=2,9=2,10=2,28=1/1;
 7/10=1,18=20,25=1/1,2,3,16;
 1/5=1,6=1000,7=-1,10=4,11=1,18=20,26=2/3(2);
 2/9=110/2;
 99//99;
 2/9=110/2;
 3/5=1,6=6,7=101,11=2,25=1,30=1,71=1,74=-55,75=1/1,2,3;
 4/5=5,16=3,69=1/1;
 5/5=2,38=5/2;
 7//1,2,3,16;
 1/5=1,6=1000,7=-1,11=1,18=20,26=2/3(-5);
 2/9=110/2;
 6/7=2,8=2,9=2,10=2,19=2,28=1/1;
 99/9=1/99;
 -----
 Title
 -----
 Symbolic Z-matrix:
 Charge =  0 Multiplicity = 2
 C                     1.61537   1.38482  -0.65304 
 C                     0.93465   2.36533   0.07165 
 C                     1.01356   0.1543   -1.0047 
 H                     2.6417    1.55816  -0.96144 
 C                    -0.36959   2.15945   0.46811 
 H                     1.43802   3.29312   0.32034 
 C                    -1.03941   0.94072   0.15343 
 H                    -0.90649   2.91587   1.03097 
 C                    -0.36263  -0.07711  -0.57404 
 C                    -1.05181  -1.28208  -0.83824 
 C                    -2.34963  -1.46809  -0.4194 
 H                    -0.55241  -2.08167  -1.37219 
 C                    -2.37701   0.72474   0.57202 
 C                    -3.02326  -0.45336   0.29051 
 H                    -2.88069   1.51157   1.12544 
 H                    -2.8533   -2.40553  -0.62897 
 H                    -4.04469  -0.60707   0.62015 
 C                     1.75402  -0.78466  -1.72386 
 H                     2.36413  -1.15414  -0.4592 
 H                     2.75616  -0.53854  -2.05705 
 H                     1.3578   -1.74392  -2.02512 
 O                     2.6135   -1.14643   1.39936 
 O                     1.27273  -1.596     1.57356 
 H                     0.79823  -0.75699   1.67752 
 
 Add virtual bond connecting atoms H19        and C18        Dist= 2.74D+00.
 Add virtual bond connecting atoms O22        and H19        Dist= 3.54D+00.

 GradGradGradGradGradGradGradGradGradGradGradGradGradGradGradGradGradGrad
 Berny optimization.
 Initialization pass.
                           ----------------------------
                           !    Initial Parameters    !
                           ! (Angstroms and Degrees)  !
 --------------------------                            --------------------------
 ! Name  Definition              Value          Derivative Info.                !
 --------------------------------------------------------------------------------
 ! R1    R(1,2)                  1.3964         calculate D2E/DX2 analytically  !
 ! R2    R(1,3)                  1.4142         calculate D2E/DX2 analytically  !
 ! R3    R(1,4)                  1.0856         calculate D2E/DX2 analytically  !
 ! R4    R(2,5)                  1.3786         calculate D2E/DX2 analytically  !
 ! R5    R(2,6)                  1.0844         calculate D2E/DX2 analytically  !
 ! R6    R(3,9)                  1.4605         calculate D2E/DX2 analytically  !
 ! R7    R(3,18)                 1.3954         calculate D2E/DX2 analytically  !
 ! R8    R(5,7)                  1.4258         calculate D2E/DX2 analytically  !
 ! R9    R(5,8)                  1.085          calculate D2E/DX2 analytically  !
 ! R10   R(7,9)                  1.4224         calculate D2E/DX2 analytically  !
 ! R11   R(7,13)                 1.4181         calculate D2E/DX2 analytically  !
 ! R12   R(9,10)                 1.4131         calculate D2E/DX2 analytically  !
 ! R13   R(10,11)                1.3764         calculate D2E/DX2 analytically  !
 ! R14   R(10,12)                1.0834         calculate D2E/DX2 analytically  !
 ! R15   R(11,14)                1.4098         calculate D2E/DX2 analytically  !
 ! R16   R(11,16)                1.0846         calculate D2E/DX2 analytically  !
 ! R17   R(13,14)                1.3729         calculate D2E/DX2 analytically  !
 ! R18   R(13,15)                1.0858         calculate D2E/DX2 analytically  !
 ! R19   R(14,17)                1.0843         calculate D2E/DX2 analytically  !
 ! R20   R(18,19)                1.4519         calculate D2E/DX2 analytically  !
 ! R21   R(18,20)                1.0844         calculate D2E/DX2 analytically  !
 ! R22   R(18,21)                1.0807         calculate D2E/DX2 analytically  !
 ! R23   R(19,22)                1.8752         calculate D2E/DX2 analytically  !
 ! R24   R(22,23)                1.4248         calculate D2E/DX2 analytically  !
 ! R25   R(23,24)                0.9695         calculate D2E/DX2 analytically  !
 ! A1    A(2,1,3)              122.1787         calculate D2E/DX2 analytically  !
 ! A2    A(2,1,4)              119.7477         calculate D2E/DX2 analytically  !
 ! A3    A(3,1,4)              118.0735         calculate D2E/DX2 analytically  !
 ! A4    A(1,2,5)              120.3685         calculate D2E/DX2 analytically  !
 ! A5    A(1,2,6)              119.5689         calculate D2E/DX2 analytically  !
 ! A6    A(5,2,6)              120.0624         calculate D2E/DX2 analytically  !
 ! A7    A(1,3,9)              117.7448         calculate D2E/DX2 analytically  !
 ! A8    A(1,3,18)             119.1985         calculate D2E/DX2 analytically  !
 ! A9    A(9,3,18)             123.051          calculate D2E/DX2 analytically  !
 ! A10   A(2,5,7)              120.5711         calculate D2E/DX2 analytically  !
 ! A11   A(2,5,8)              120.8777         calculate D2E/DX2 analytically  !
 ! A12   A(7,5,8)              118.5499         calculate D2E/DX2 analytically  !
 ! A13   A(5,7,9)              120.0656         calculate D2E/DX2 analytically  !
 ! A14   A(5,7,13)             120.54           calculate D2E/DX2 analytically  !
 ! A15   A(9,7,13)             119.3912         calculate D2E/DX2 analytically  !
 ! A16   A(3,9,7)              119.0636         calculate D2E/DX2 analytically  !
 ! A17   A(3,9,10)             122.6542         calculate D2E/DX2 analytically  !
 ! A18   A(7,9,10)             118.2788         calculate D2E/DX2 analytically  !
 ! A19   A(9,10,11)            121.2143         calculate D2E/DX2 analytically  !
 ! A20   A(9,10,12)            119.7796         calculate D2E/DX2 analytically  !
 ! A21   A(11,10,12)           119.0039         calculate D2E/DX2 analytically  !
 ! A22   A(10,11,14)           120.433          calculate D2E/DX2 analytically  !
 ! A23   A(10,11,16)           119.7282         calculate D2E/DX2 analytically  !
 ! A24   A(14,11,16)           119.8362         calculate D2E/DX2 analytically  !
 ! A25   A(7,13,14)            120.9418         calculate D2E/DX2 analytically  !
 ! A26   A(7,13,15)            118.529          calculate D2E/DX2 analytically  !
 ! A27   A(14,13,15)           120.5288         calculate D2E/DX2 analytically  !
 ! A28   A(11,14,13)           119.7354         calculate D2E/DX2 analytically  !
 ! A29   A(11,14,17)           120.0795         calculate D2E/DX2 analytically  !
 ! A30   A(13,14,17)           120.1829         calculate D2E/DX2 analytically  !
 ! A31   A(3,18,19)             86.8649         calculate D2E/DX2 analytically  !
 ! A32   A(3,18,20)            119.738          calculate D2E/DX2 analytically  !
 ! A33   A(3,18,21)            123.1204         calculate D2E/DX2 analytically  !
 ! A34   A(19,18,20)            86.391          calculate D2E/DX2 analytically  !
 ! A35   A(19,18,21)            99.8453         calculate D2E/DX2 analytically  !
 ! A36   A(20,18,21)           117.0414         calculate D2E/DX2 analytically  !
 ! A37   A(18,19,22)           156.6509         calculate D2E/DX2 analytically  !
 ! A38   A(19,22,23)            89.6986         calculate D2E/DX2 analytically  !
 ! A39   A(22,23,24)           101.5727         calculate D2E/DX2 analytically  !
 ! D1    D(3,1,2,5)             -0.2373         calculate D2E/DX2 analytically  !
 ! D2    D(3,1,2,6)            179.8676         calculate D2E/DX2 analytically  !
 ! D3    D(4,1,2,5)            179.906          calculate D2E/DX2 analytically  !
 ! D4    D(4,1,2,6)              0.0108         calculate D2E/DX2 analytically  !
 ! D5    D(2,1,3,9)             -0.4903         calculate D2E/DX2 analytically  !
 ! D6    D(2,1,3,18)          -179.6482         calculate D2E/DX2 analytically  !
 ! D7    D(4,1,3,9)            179.3687         calculate D2E/DX2 analytically  !
 ! D8    D(4,1,3,18)             0.2109         calculate D2E/DX2 analytically  !
 ! D9    D(1,2,5,7)              0.4541         calculate D2E/DX2 analytically  !
 ! D10   D(1,2,5,8)           -179.9652         calculate D2E/DX2 analytically  !
 ! D11   D(6,2,5,7)           -179.6513         calculate D2E/DX2 analytically  !
 ! D12   D(6,2,5,8)             -0.0705         calculate D2E/DX2 analytically  !
 ! D13   D(1,3,9,7)              0.9957         calculate D2E/DX2 analytically  !
 ! D14   D(1,3,9,10)          -178.326          calculate D2E/DX2 analytically  !
 ! D15   D(18,3,9,7)          -179.8814         calculate D2E/DX2 analytically  !
 ! D16   D(18,3,9,10)            0.7969         calculate D2E/DX2 analytically  !
 ! D17   D(1,3,18,19)           80.2705         calculate D2E/DX2 analytically  !
 ! D18   D(1,3,18,20)           -3.7661         calculate D2E/DX2 analytically  !
 ! D19   D(1,3,18,21)          179.9846         calculate D2E/DX2 analytically  !
 ! D20   D(9,3,18,19)          -98.8403         calculate D2E/DX2 analytically  !
 ! D21   D(9,3,18,20)          177.1231         calculate D2E/DX2 analytically  !
 ! D22   D(9,3,18,21)            0.8739         calculate D2E/DX2 analytically  !
 ! D23   D(2,5,7,9)              0.079          calculate D2E/DX2 analytically  !
 ! D24   D(2,5,7,13)           179.427          calculate D2E/DX2 analytically  !
 ! D25   D(8,5,7,9)           -179.5113         calculate D2E/DX2 analytically  !
 ! D26   D(8,5,7,13)            -0.1633         calculate D2E/DX2 analytically  !
 ! D27   D(5,7,9,3)             -0.8063         calculate D2E/DX2 analytically  !
 ! D28   D(5,7,9,10)           178.5452         calculate D2E/DX2 analytically  !
 ! D29   D(13,7,9,3)           179.8382         calculate D2E/DX2 analytically  !
 ! D30   D(13,7,9,10)           -0.8103         calculate D2E/DX2 analytically  !
 ! D31   D(5,7,13,14)         -179.0386         calculate D2E/DX2 analytically  !
 ! D32   D(5,7,13,15)            0.72           calculate D2E/DX2 analytically  !
 ! D33   D(9,7,13,14)            0.3138         calculate D2E/DX2 analytically  !
 ! D34   D(9,7,13,15)         -179.9277         calculate D2E/DX2 analytically  !
 ! D35   D(3,9,10,11)         -179.9373         calculate D2E/DX2 analytically  !
 ! D36   D(3,9,10,12)            0.6121         calculate D2E/DX2 analytically  !
 ! D37   D(7,9,10,11)            0.7359         calculate D2E/DX2 analytically  !
 ! D38   D(7,9,10,12)         -178.7147         calculate D2E/DX2 analytically  !
 ! D39   D(9,10,11,14)          -0.1489         calculate D2E/DX2 analytically  !
 ! D40   D(9,10,11,16)        -179.5533         calculate D2E/DX2 analytically  !
 ! D41   D(12,10,11,14)        179.3059         calculate D2E/DX2 analytically  !
 ! D42   D(12,10,11,16)         -0.0985         calculate D2E/DX2 analytically  !
 ! D43   D(10,11,14,13)         -0.3727         calculate D2E/DX2 analytically  !
 ! D44   D(10,11,14,17)       -179.8295         calculate D2E/DX2 analytically  !
 ! D45   D(16,11,14,13)        179.0311         calculate D2E/DX2 analytically  !
 ! D46   D(16,11,14,17)         -0.4257         calculate D2E/DX2 analytically  !
 ! D47   D(7,13,14,11)           0.2841         calculate D2E/DX2 analytically  !
 ! D48   D(7,13,14,17)         179.7403         calculate D2E/DX2 analytically  !
 ! D49   D(15,13,14,11)       -179.4696         calculate D2E/DX2 analytically  !
 ! D50   D(15,13,14,17)         -0.0134         calculate D2E/DX2 analytically  !
 ! D51   D(3,18,19,22)           7.0008         calculate D2E/DX2 analytically  !
 ! D52   D(20,18,19,22)        127.0815         calculate D2E/DX2 analytically  !
 ! D53   D(21,18,19,22)       -116.0848         calculate D2E/DX2 analytically  !
 ! D54   D(18,19,22,23)         59.0542         calculate D2E/DX2 analytically  !
 ! D55   D(19,22,23,24)        -92.68           calculate D2E/DX2 analytically  !
 --------------------------------------------------------------------------------
 Trust Radius=3.00D-01 FncErr=1.00D-05 GrdErr=1.00D-04 EigMax=2.50D+02 EigMin=1.00D-04
 Number of steps in this run=    144 maximum allowed number of steps=    144.
 Search for a saddle point of order  1.
 GradGradGradGradGradGradGradGradGradGradGradGradGradGradGradGradGradGrad

                          Input orientation:                          
 ---------------------------------------------------------------------
 Center     Atomic      Atomic             Coordinates (Angstroms)
 Number     Number       Type             X           Y           Z
 ---------------------------------------------------------------------
      1          6           0        1.615370    1.384820   -0.653040
      2          6           0        0.934650    2.365330    0.071650
      3          6           0        1.013560    0.154300   -1.004700
      4          1           0        2.641700    1.558160   -0.961440
      5          6           0       -0.369590    2.159450    0.468110
      6          1           0        1.438020    3.293120    0.320340
      7          6           0       -1.039410    0.940720    0.153430
      8          1           0       -0.906490    2.915870    1.030970
      9          6           0       -0.362630   -0.077110   -0.574040
     10          6           0       -1.051810   -1.282080   -0.838240
     11          6           0       -2.349630   -1.468090   -0.419400
     12          1           0       -0.552410   -2.081670   -1.372190
     13          6           0       -2.377010    0.724740    0.572020
     14          6           0       -3.023260   -0.453360    0.290510
     15          1           0       -2.880690    1.511570    1.125440
     16          1           0       -2.853300   -2.405530   -0.628970
     17          1           0       -4.044690   -0.607070    0.620150
     18          6           0        1.754020   -0.784660   -1.723860
     19          1           0        2.364130   -1.154140   -0.459200
     20          1           0        2.756160   -0.538540   -2.057050
     21          1           0        1.357800   -1.743920   -2.025120
     22          8           0        2.613500   -1.146430    1.399360
     23          8           0        1.272730   -1.596000    1.573560
     24          1           0        0.798230   -0.756990    1.677520
 ---------------------------------------------------------------------
                    Distance matrix (angstroms):
                    1          2          3          4          5
     1  C    0.000000
     2  C    1.396408   0.000000
     3  C    1.414220   2.460368   0.000000
     4  H    1.085592   2.152398   2.150240   0.000000
     5  C    2.407716   1.378626   2.846559   3.387186   0.000000
     6  H    2.149542   1.084446   3.433379   2.470201   2.138808
     7  C    2.809889   2.435799   2.484835   3.895477   1.425828
     8  H    3.397025   2.147833   3.931515   4.289840   1.085009
     9  C    2.460887   2.839958   1.460451   3.442410   2.467453
    10  C    3.776308   4.251767   2.521240   4.660918   3.743809
    11  C    4.890287   5.071758   3.779652   5.862199   4.226970
    12  H    4.151265   4.906305   2.754428   4.859981   4.626794
    13  C    4.227952   3.729477   3.782514   5.313524   2.469600
    14  C    5.078000   4.863945   4.282842   6.140469   3.728308
    15  H    4.836694   4.049222   4.641644   5.903730   2.675342
    16  H    5.859722   6.131928   4.652581   6.783539   5.311444
    17  H    6.133915   5.824933   5.367096   7.203989   4.602511
    18  C    2.423329   3.717211   1.395392   2.618791   4.240547
    19  H    2.654154   3.835607   1.957964   2.772339   4.394657
    20  H    2.640447   4.035062   2.150377   2.368462   4.840031
    21  H    3.426071   4.632649   2.182429   3.699128   4.943316
    22  O    3.408201   4.112640   3.167209   3.590122   4.549164
    23  O    3.736367   4.249961   3.127002   4.271888   4.245308
    24  H    3.269033   3.513732   2.840972   3.965150   3.366318
                    6          7          8          9         10
     6  H    0.000000
     7  C    3.420425   0.000000
     8  H    2.478717   2.165401   0.000000
     9  C    3.924373   1.422400   3.439443   0.000000
    10  C    5.336105   2.434010   4.597592   1.413055   0.000000
    11  C    6.128836   2.801281   4.837906   2.430413   1.376359
    12  H    5.976189   3.420457   5.556614   2.165946   1.083442
    13  C    4.605906   1.418111   2.678454   2.452375   2.787887
    14  C    5.825807   2.428561   4.047309   2.822758   2.418154
    15  H    4.740608   2.158931   2.424551   3.428230   3.873670
    16  H    7.196612   3.885838   5.904470   3.409984   2.133378
    17  H    6.735093   3.412505   4.735840   3.906983   3.397039
    18  C    4.572406   3.782116   5.325535   2.510562   2.984029
    19  H    4.609065   4.043246   5.429783   2.934008   3.439286
    20  H    4.697988   4.634737   5.906253   3.484119   4.066815
    21  H    5.556923   4.207135   6.015009   2.800673   2.725473
    22  O    4.717589   4.387743   5.387794   3.727614   4.296481
    23  O    5.049889   3.714527   5.039878   3.097356   3.364344
    24  H    4.319104   2.929503   4.100488   2.622852   3.166610
                   11         12         13         14         15
    11  C    0.000000
    12  H    2.124686   0.000000
    13  C    2.406692   3.871053   0.000000
    14  C    1.409761   3.394269   1.372883   0.000000
    15  H    3.398077   4.956856   1.085849   2.139716   0.000000
    16  H    1.084618   2.439540   3.386417   2.164555   4.292130
    17  H    2.166852   4.282509   2.134758   1.084255   2.469585
    18  C    4.359889   2.669368   4.961327   5.195176   5.905228
    19  H    4.724371   3.193755   5.203077   5.484262   6.093048
    20  H    5.441971   3.714420   5.904009   6.238589   6.790086
    21  H    4.049624   2.046777   5.175734   5.120681   6.203954
    22  O    5.295660   4.310354   5.393603   5.786446   6.109511
    23  O    4.136392   3.499208   4.439540   4.626810   5.206602
    24  H    3.848605   3.588835   3.674208   4.076736   4.357248
                   16         17         18         19         20
    16  H    0.000000
    17  H    2.492824   0.000000
    18  C    5.005337   6.257073   0.000000
    19  H    5.368089   6.522059   1.451935   0.000000
    20  H    6.082031   7.309149   1.084378   1.756638   0.000000
    21  H    4.485569   6.121828   1.080707   1.952600   1.846448
    22  O    5.965346   6.725293   3.259461   1.875231   3.512357
    23  O    4.746641   5.491988   3.429707   2.349150   4.062033
    24  H    4.622905   4.959272   3.533226   2.678683   4.222348
                   21         22         23         24
    21  H    0.000000
    22  O    3.696057   0.000000
    23  O    3.602723   1.424824   0.000000
    24  H    3.872556   1.877296   0.969482   0.000000
 Stoichiometry    C11H11O2(2)
 Framework group  C1[X(C11H11O2)]
 Deg. of freedom    66
 Full point group                 C1      NOp   1
 Largest Abelian subgroup         C1      NOp   1
 Largest concise Abelian subgroup C1      NOp   1
                         Standard orientation:                         
 ---------------------------------------------------------------------
 Center     Atomic      Atomic             Coordinates (Angstroms)
 Number     Number       Type             X           Y           Z
 ---------------------------------------------------------------------
      1          6           0        1.630409    1.371135   -0.642814
      2          6           0        0.945788    2.362454    0.063257
      3          6           0        1.027827    0.138674   -0.986259
      4          1           0        2.660484    1.537265   -0.942575
      5          6           0       -0.363206    2.165789    0.448570
      6          1           0        1.449907    3.291341    0.306269
      7          6           0       -1.034133    0.945788    0.141258
      8          1           0       -0.903154    2.930632    0.996944
      9          6           0       -0.353558   -0.082867   -0.567197
     10          6           0       -1.044315   -1.288448   -0.824396
     11          6           0       -2.347049   -1.465004   -0.416873
     12          1           0       -0.542319   -2.095989   -1.343747
     13          6           0       -2.376750    0.739400    0.548471
     14          6           0       -3.024304   -0.439667    0.274093
     15          1           0       -2.883273    1.534424    1.087394
     16          1           0       -2.851906   -2.403081   -0.620659
     17          1           0       -4.049628   -0.585936    0.594913
     18          6           0        1.772277   -0.811241   -1.686669
     19          1           0        2.367972   -1.167966   -0.411518
     20          1           0        2.778682   -0.572543   -2.012319
     21          1           0        1.375731   -1.772586   -1.980766
     22          8           0        2.598181   -1.139299    1.449307
     23          8           0        1.254074   -1.582119    1.614862
     24          1           0        0.781554   -0.740298    1.704072
 ---------------------------------------------------------------------
 Rotational constants (GHZ):           1.0439426           0.7002737           0.5742723
 Standard basis: 6-31G(d,p) (6D, 7F)
 There are   250 symmetry adapted cartesian basis functions of A   symmetry.
 There are   250 symmetry adapted basis functions of A   symmetry.
   250 basis functions,   441 primitive gaussians,   250 cartesian basis functions
    47 alpha electrons       46 beta electrons
       nuclear repulsion energy       753.5776043433 Hartrees.
 NAtoms=   24 NActive=   24 NUniq=   24 SFac= 1.00D+00 NAtFMM=   60 NAOKFM=F Big=F
 Integral buffers will be    131072 words long.
 Raffenetti 2 integral format.
 Two-electron integral symmetry is turned on.
 One-electron integrals computed using PRISM.
 NBasis=   250 RedAO= T EigKep=  2.74D-04  NBF=   250
 NBsUse=   250 1.00D-06 EigRej= -1.00D+00 NBFU=   250
 ExpMin= 1.61D-01 ExpMax= 5.48D+03 ExpMxC= 8.25D+02 IAcc=1 IRadAn=         1 AccDes= 0.00D+00
 Harris functional with IExCor= 1009 and IRadAn=       1 diagonalized for initial guess.
 HarFok:  IExCor= 1009 AccDes= 0.00D+00 IRadAn=         1 IDoV= 1 UseB2=F ITyADJ=14
 ICtDFT=  3500011 ScaDFX=  1.000000  1.000000  1.000000  1.000000
 FoFCou: FMM=F IPFlag=           0 FMFlag=      100000 FMFlg1=           0
         NFxFlg=           0 DoJE=T BraDBF=F KetDBF=T FulRan=T
         wScrn=  0.000000 ICntrl=       500 IOpCl=  0 I1Cent=   200000004 NGrid=           0
         NMat0=    1 NMatS0=      1 NMatT0=    0 NMatD0=    1 NMtDS0=    0 NMtDT0=    0
 Petite list used in FoFCou.
 Initial guess <Sx>= 0.0000 <Sy>= 0.0000 <Sz>= 0.5000 <S**2>= 0.7500 S= 0.5000
 Requested convergence on RMS density matrix=1.00D-08 within 128 cycles.
 Requested convergence on MAX density matrix=1.00D-06.
 Requested convergence on             energy=1.00D-06.
 No special actions if energy rises.
 Restarting incremental Fock formation.
 SCF Done:  E(UM062X) =  -575.789638976     A.U. after   24 cycles
            NFock= 24  Conv=0.70D-08     -V/T= 2.0090
 <Sx>= 0.0000 <Sy>= 0.0000 <Sz>= 0.5000 <S**2>= 0.7633 S= 0.5066
 <L.S>= 0.000000000000E+00
 Annihilation of the first spin contaminant:
 S**2 before annihilation     0.7633,   after     0.7501
 DoSCS=F DFT=T ScalE2(SS,OS)=  1.000000  1.000000
 Range of M.O.s used for correlation:     1   250
 NBasis=   250 NAE=    47 NBE=    46 NFC=     0 NFV=     0
 NROrb=    250 NOA=    47 NOB=    46 NVA=   203 NVB=   204
 Symmetrizing basis deriv contribution to polar:
 IMax=3 JMax=2 DiffMx= 0.00D+00
 G2DrvN: will do    25 centers at a time, making    1 passes.
 Calling FoFCou, ICntrl=  3107 FMM=F I1Cent=   0 AccDes= 0.00D+00.
 End of G2Drv F.D. properties file   721 does not exist.
 End of G2Drv F.D. properties file   722 does not exist.
 End of G2Drv F.D. properties file   788 does not exist.
          IDoAtm=111111111111111111111111
          Differentiating once with respect to nuclear coordinates.
 Keep R1 and R2 ints in memory in canonical form, NReq=1005959312.
          There are    75 degrees of freedom in the 1st order CPHF.  IDoFFX=6 NUNeed=     0.
     69 vectors produced by pass  0 Test12= 2.52D-14 1.33D-09 XBig12= 1.80D-01 1.20D-01.
 AX will form    69 AO Fock derivatives at one time.
     69 vectors produced by pass  1 Test12= 2.52D-14 1.33D-09 XBig12= 2.45D-02 2.74D-02.
     69 vectors produced by pass  2 Test12= 2.52D-14 1.33D-09 XBig12= 6.13D-04 4.88D-03.
     69 vectors produced by pass  3 Test12= 2.52D-14 1.33D-09 XBig12= 5.12D-06 4.05D-04.
     69 vectors produced by pass  4 Test12= 2.52D-14 1.33D-09 XBig12= 6.54D-08 3.28D-05.
     69 vectors produced by pass  5 Test12= 2.52D-14 1.33D-09 XBig12= 6.09D-10 3.25D-06.
     68 vectors produced by pass  6 Test12= 2.52D-14 1.33D-09 XBig12= 3.97D-12 1.76D-07.
     34 vectors produced by pass  7 Test12= 2.52D-14 1.33D-09 XBig12= 2.42D-14 1.19D-08.
 InvSVY:  IOpt=1 It=  1 EMax= 6.66D-16
 Solved reduced A of dimension   516 with    75 vectors.
 End of Minotr F.D. properties file   721 does not exist.
 End of Minotr F.D. properties file   722 does not exist.
 End of Minotr F.D. properties file   788 does not exist.

 **********************************************************************

            Population analysis using the SCF density.

 **********************************************************************

 Orbital symmetries:
 Alpha Orbitals:
       Occupied  (A) (A) (A) (A) (A) (A) (A) (A) (A) (A) (A) (A)
                 (A) (A) (A) (A) (A) (A) (A) (A) (A) (A) (A) (A)
                 (A) (A) (A) (A) (A) (A) (A) (A) (A) (A) (A) (A)
                 (A) (A) (A) (A) (A) (A) (A) (A) (A) (A) (A)
       Virtual   (A) (A) (A) (A) (A) (A) (A) (A) (A) (A) (A) (A)
                 (A) (A) (A) (A) (A) (A) (A) (A) (A) (A) (A) (A)
                 (A) (A) (A) (A) (A) (A) (A) (A) (A) (A) (A) (A)
                 (A) (A) (A) (A) (A) (A) (A) (A) (A) (A) (A) (A)
                 (A) (A) (A) (A) (A) (A) (A) (A) (A) (A) (A) (A)
                 (A) (A) (A) (A) (A) (A) (A) (A) (A) (A) (A) (A)
                 (A) (A) (A) (A) (A) (A) (A) (A) (A) (A) (A) (A)
                 (A) (A) (A) (A) (A) (A) (A) (A) (A) (A) (A) (A)
                 (A) (A) (A) (A) (A) (A) (A) (A) (A) (A) (A) (A)
                 (A) (A) (A) (A) (A) (A) (A) (A) (A) (A) (A) (A)
                 (A) (A) (A) (A) (A) (A) (A) (A) (A) (A) (A) (A)
                 (A) (A) (A) (A) (A) (A) (A) (A) (A) (A) (A) (A)
                 (A) (A) (A) (A) (A) (A) (A) (A) (A) (A) (A) (A)
                 (A) (A) (A) (A) (A) (A) (A) (A) (A) (A) (A) (A)
                 (A) (A) (A) (A) (A) (A) (A) (A) (A) (A) (A) (A)
                 (A) (A) (A) (A) (A) (A) (A) (A) (A) (A) (A) (A)
                 (A) (A) (A) (A) (A) (A) (A) (A) (A) (A) (A)
 Beta  Orbitals:
       Occupied  (A) (A) (A) (A) (A) (A) (A) (A) (A) (A) (A) (A)
                 (A) (A) (A) (A) (A) (A) (A) (A) (A) (A) (A) (A)
                 (A) (A) (A) (A) (A) (A) (A) (A) (A) (A) (A) (A)
                 (A) (A) (A) (A) (A) (A) (A) (A) (A) (A)
       Virtual   (A) (A) (A) (A) (A) (A) (A) (A) (A) (A) (A) (A)
                 (A) (A) (A) (A) (A) (A) (A) (A) (A) (A) (A) (A)
                 (A) (A) (A) (A) (A) (A) (A) (A) (A) (A) (A) (A)
                 (A) (A) (A) (A) (A) (A) (A) (A) (A) (A) (A) (A)
                 (A) (A) (A) (A) (A) (A) (A) (A) (A) (A) (A) (A)
                 (A) (A) (A) (A) (A) (A) (A) (A) (A) (A) (A) (A)
                 (A) (A) (A) (A) (A) (A) (A) (A) (A) (A) (A) (A)
                 (A) (A) (A) (A) (A) (A) (A) (A) (A) (A) (A) (A)
                 (A) (A) (A) (A) (A) (A) (A) (A) (A) (A) (A) (A)
                 (A) (A) (A) (A) (A) (A) (A) (A) (A) (A) (A) (A)
                 (A) (A) (A) (A) (A) (A) (A) (A) (A) (A) (A) (A)
                 (A) (A) (A) (A) (A) (A) (A) (A) (A) (A) (A) (A)
                 (A) (A) (A) (A) (A) (A) (A) (A) (A) (A) (A) (A)
                 (A) (A) (A) (A) (A) (A) (A) (A) (A) (A) (A) (A)
                 (A) (A) (A) (A) (A) (A) (A) (A) (A) (A) (A) (A)
                 (A) (A) (A) (A) (A) (A) (A) (A) (A) (A) (A) (A)
                 (A) (A) (A) (A) (A) (A) (A) (A) (A) (A) (A) (A)
 The electronic state is 2-A.
 Alpha  occ. eigenvalues --  -19.74187 -19.73489 -10.57559 -10.57107 -10.56542
 Alpha  occ. eigenvalues --  -10.56294 -10.55637 -10.55573 -10.55495 -10.55436
 Alpha  occ. eigenvalues --  -10.55363 -10.54981 -10.54958  -1.26526  -0.99144
 Alpha  occ. eigenvalues --   -0.98393  -0.92977  -0.89416  -0.83845  -0.83613
 Alpha  occ. eigenvalues --   -0.77036  -0.70645  -0.69616  -0.65792  -0.61414
 Alpha  occ. eigenvalues --   -0.59158  -0.58633  -0.56503  -0.55956  -0.53048
 Alpha  occ. eigenvalues --   -0.52849  -0.51456  -0.49402  -0.48399  -0.47189
 Alpha  occ. eigenvalues --   -0.46661  -0.45362  -0.43589  -0.42310  -0.39280
 Alpha  occ. eigenvalues --   -0.39091  -0.38820  -0.38677  -0.37798  -0.31610
 Alpha  occ. eigenvalues --   -0.29850  -0.24078
 Alpha virt. eigenvalues --   -0.00950   0.02181   0.05955   0.09460   0.11028
 Alpha virt. eigenvalues --    0.13106   0.14525   0.14779   0.15566   0.16185
 Alpha virt. eigenvalues --    0.18990   0.19310   0.21962   0.23029   0.23465
 Alpha virt. eigenvalues --    0.25671   0.27263   0.29289   0.29662   0.33767
 Alpha virt. eigenvalues --    0.35139   0.35858   0.36225   0.39641   0.45133
 Alpha virt. eigenvalues --    0.49979   0.52754   0.55426   0.55689   0.56534
 Alpha virt. eigenvalues --    0.58370   0.58658   0.59201   0.60564   0.61088
 Alpha virt. eigenvalues --    0.63449   0.63979   0.64855   0.65349   0.65698
 Alpha virt. eigenvalues --    0.66299   0.66831   0.67044   0.68213   0.69092
 Alpha virt. eigenvalues --    0.71586   0.72918   0.75478   0.78039   0.79889
 Alpha virt. eigenvalues --    0.81576   0.84155   0.84787   0.87068   0.87576
 Alpha virt. eigenvalues --    0.88127   0.88596   0.90036   0.91372   0.92104
 Alpha virt. eigenvalues --    0.92754   0.94332   0.95054   0.96452   0.97854
 Alpha virt. eigenvalues --    0.99033   1.01273   1.01865   1.03674   1.05115
 Alpha virt. eigenvalues --    1.06468   1.08436   1.09237   1.09714   1.12793
 Alpha virt. eigenvalues --    1.13313   1.15418   1.19425   1.20462   1.22455
 Alpha virt. eigenvalues --    1.23978   1.26995   1.29114   1.29574   1.32021
 Alpha virt. eigenvalues --    1.34762   1.36847   1.39105   1.41043   1.42332
 Alpha virt. eigenvalues --    1.44065   1.46044   1.46471   1.47560   1.48654
 Alpha virt. eigenvalues --    1.49368   1.49432   1.51359   1.52487   1.54541
 Alpha virt. eigenvalues --    1.55765   1.60851   1.61012   1.75464   1.77434
 Alpha virt. eigenvalues --    1.79811   1.80971   1.85761   1.86860   1.88072
 Alpha virt. eigenvalues --    1.90068   1.91138   1.91330   1.92248   1.93141
 Alpha virt. eigenvalues --    1.94047   1.95298   1.97485   1.99562   2.00638
 Alpha virt. eigenvalues --    2.01790   2.03496   2.04619   2.05978   2.08281
 Alpha virt. eigenvalues --    2.09276   2.11379   2.14310   2.17911   2.18097
 Alpha virt. eigenvalues --    2.21943   2.24285   2.26785   2.28982   2.30350
 Alpha virt. eigenvalues --    2.31894   2.33026   2.35511   2.37176   2.37425
 Alpha virt. eigenvalues --    2.40697   2.41002   2.42392   2.42848   2.43408
 Alpha virt. eigenvalues --    2.44227   2.46196   2.46976   2.48162   2.50129
 Alpha virt. eigenvalues --    2.53118   2.55108   2.57217   2.57565   2.58190
 Alpha virt. eigenvalues --    2.61542   2.62444   2.63922   2.64758   2.65741
 Alpha virt. eigenvalues --    2.67183   2.67960   2.70967   2.71537   2.74606
 Alpha virt. eigenvalues --    2.76978   2.79042   2.79853   2.84079   2.84997
 Alpha virt. eigenvalues --    2.85802   2.96427   3.00880   3.03451   3.05077
 Alpha virt. eigenvalues --    3.08140   3.16720   3.18972   3.23134   3.23794
 Alpha virt. eigenvalues --    3.25111   3.31603   3.36316   3.37649   3.41745
 Alpha virt. eigenvalues --    3.45374   3.47538   3.48280   3.59422   3.75150
 Alpha virt. eigenvalues --    3.77729   3.87082   4.15925   4.17757   4.18617
 Alpha virt. eigenvalues --    4.21016   4.23650   4.36868   4.44218   4.44972
 Alpha virt. eigenvalues --    4.56715   4.67964   4.94649
  Beta  occ. eigenvalues --  -19.73636 -19.72039 -10.57590 -10.57023 -10.56523
  Beta  occ. eigenvalues --  -10.56303 -10.55642 -10.55573 -10.55494 -10.55433
  Beta  occ. eigenvalues --  -10.55374 -10.54950 -10.54926  -1.23556  -0.98386
  Beta  occ. eigenvalues --   -0.94315  -0.92926  -0.89334  -0.83811  -0.83563
  Beta  occ. eigenvalues --   -0.76856  -0.70627  -0.69589  -0.65732  -0.60038
  Beta  occ. eigenvalues --   -0.59100  -0.58609  -0.56463  -0.52808  -0.51412
  Beta  occ. eigenvalues --   -0.51187  -0.49510  -0.49076  -0.48354  -0.46612
  Beta  occ. eigenvalues --   -0.45362  -0.45136  -0.43521  -0.41261  -0.39246
  Beta  occ. eigenvalues --   -0.38802  -0.37590  -0.36066  -0.32133  -0.29730
  Beta  occ. eigenvalues --   -0.24275
  Beta virt. eigenvalues --   -0.08818  -0.00788   0.02320   0.06192   0.10900
  Beta virt. eigenvalues --    0.11752   0.13149   0.14810   0.14989   0.16238
  Beta virt. eigenvalues --    0.16318   0.19026   0.19388   0.21975   0.23065
  Beta virt. eigenvalues --    0.23478   0.25752   0.27294   0.29318   0.29713
  Beta virt. eigenvalues --    0.33795   0.35173   0.35905   0.36238   0.39680
  Beta virt. eigenvalues --    0.45169   0.50027   0.52822   0.55476   0.55944
  Beta virt. eigenvalues --    0.56600   0.58498   0.58888   0.59308   0.60713
  Beta virt. eigenvalues --    0.61225   0.63570   0.64155   0.64976   0.65407
  Beta virt. eigenvalues --    0.65752   0.66327   0.66918   0.67082   0.68246
  Beta virt. eigenvalues --    0.69240   0.71680   0.72948   0.75530   0.78074
  Beta virt. eigenvalues --    0.80135   0.81824   0.84555   0.85032   0.87154
  Beta virt. eigenvalues --    0.87702   0.88276   0.88790   0.90130   0.91535
  Beta virt. eigenvalues --    0.92807   0.92916   0.94410   0.95893   0.97097
  Beta virt. eigenvalues --    0.97891   1.00148   1.01651   1.01987   1.03825
  Beta virt. eigenvalues --    1.05612   1.06755   1.08882   1.09578   1.09952
  Beta virt. eigenvalues --    1.13392   1.14896   1.15447   1.19697   1.20559
  Beta virt. eigenvalues --    1.22456   1.24151   1.27099   1.29241   1.29541
  Beta virt. eigenvalues --    1.32069   1.35127   1.37178   1.39235   1.41122
  Beta virt. eigenvalues --    1.42655   1.44358   1.46155   1.46522   1.47635
  Beta virt. eigenvalues --    1.48729   1.49480   1.49608   1.51593   1.53222
  Beta virt. eigenvalues --    1.55354   1.56148   1.60915   1.62081   1.75855
  Beta virt. eigenvalues --    1.77724   1.79865   1.81654   1.86161   1.88025
  Beta virt. eigenvalues --    1.89434   1.90476   1.91373   1.92008   1.92807
  Beta virt. eigenvalues --    1.93583   1.94460   1.95432   1.97501   1.99750
  Beta virt. eigenvalues --    2.00806   2.01898   2.03603   2.04630   2.06076
  Beta virt. eigenvalues --    2.09172   2.09351   2.11431   2.14367   2.18162
  Beta virt. eigenvalues --    2.18613   2.21861   2.24327   2.26896   2.28948
  Beta virt. eigenvalues --    2.30169   2.31901   2.33112   2.35525   2.37287
  Beta virt. eigenvalues --    2.37384   2.40841   2.41115   2.42503   2.43126
  Beta virt. eigenvalues --    2.43826   2.44698   2.46636   2.47125   2.48176
  Beta virt. eigenvalues --    2.50226   2.53173   2.55185   2.57360   2.57657
  Beta virt. eigenvalues --    2.58266   2.61647   2.62503   2.64018   2.64836
  Beta virt. eigenvalues --    2.65858   2.67330   2.68050   2.70976   2.71589
  Beta virt. eigenvalues --    2.74722   2.77050   2.79213   2.79967   2.84155
  Beta virt. eigenvalues --    2.85020   2.85918   2.96612   3.01338   3.03735
  Beta virt. eigenvalues --    3.05171   3.08276   3.16806   3.19047   3.23146
  Beta virt. eigenvalues --    3.23851   3.25177   3.31738   3.36422   3.37802
  Beta virt. eigenvalues --    3.42042   3.45248   3.47712   3.50157   3.59892
  Beta virt. eigenvalues --    3.75816   3.77913   3.87134   4.15936   4.17858
  Beta virt. eigenvalues --    4.18657   4.21064   4.23747   4.36983   4.44664
  Beta virt. eigenvalues --    4.45144   4.56967   4.68092   4.94736
          Condensed to atoms (all electrons):
               1          2          3          4          5          6
     1  C    4.971631   0.496489   0.543627   0.374657  -0.039399  -0.032392
     2  C    0.496489   4.839886  -0.017537  -0.033436   0.534217   0.371786
     3  C    0.543627  -0.017537   4.886093  -0.041837  -0.055068   0.002739
     4  H    0.374657  -0.033436  -0.041837   0.584212   0.004113  -0.004628
     5  C   -0.039399   0.534217  -0.055068   0.004113   5.009236  -0.030543
     6  H   -0.032392   0.371786   0.002739  -0.004628  -0.030543   0.569695
     7  C   -0.048829  -0.012062  -0.032574   0.000768   0.475846   0.002161
     8  H    0.004018  -0.035872   0.000765  -0.000177   0.374296  -0.004431
     9  C   -0.011040  -0.042958   0.446612   0.003654  -0.044305   0.001309
    10  C    0.009512  -0.001269  -0.086554  -0.000154   0.012935   0.000017
    11  C   -0.000256   0.000071   0.007298   0.000002  -0.000487  -0.000000
    12  H   -0.000046   0.000017  -0.011612  -0.000009  -0.000167   0.000000
    13  C   -0.000072   0.007144   0.011371   0.000007  -0.078205  -0.000204
    14  C    0.000049  -0.000397  -0.000460  -0.000000   0.007605   0.000003
    15  H    0.000003   0.000321  -0.000156  -0.000000  -0.006963  -0.000010
    16  H    0.000002  -0.000000  -0.000207  -0.000000   0.000010  -0.000000
    17  H   -0.000000   0.000003   0.000014   0.000000  -0.000188  -0.000000
    18  C   -0.088939   0.007070   0.368384  -0.006592   0.000044  -0.000206
    19  H   -0.022532  -0.000417  -0.058534   0.000668   0.000321   0.000001
    20  H   -0.004287   0.000266  -0.030601   0.005065  -0.000003  -0.000009
    21  H    0.004579  -0.000194  -0.019137   0.000106   0.000014   0.000002
    22  O    0.002529  -0.000196  -0.001079   0.000036   0.000020  -0.000002
    23  O   -0.000467   0.000040   0.002510  -0.000007  -0.000157   0.000000
    24  H   -0.000173   0.000424   0.000241   0.000002   0.000883   0.000003
               7          8          9         10         11         12
     1  C   -0.048829   0.004018  -0.011040   0.009512  -0.000256  -0.000046
     2  C   -0.012062  -0.035872  -0.042958  -0.001269   0.000071   0.000017
     3  C   -0.032574   0.000765   0.446612  -0.086554   0.007298  -0.011612
     4  H    0.000768  -0.000177   0.003654  -0.000154   0.000002  -0.000009
     5  C    0.475846   0.374296  -0.044305   0.012935  -0.000487  -0.000167
     6  H    0.002161  -0.004431   0.001309   0.000017  -0.000000   0.000000
     7  C    4.757782  -0.040607   0.505363  -0.060002  -0.036170   0.004391
     8  H   -0.040607   0.582607   0.003875  -0.000188   0.000012   0.000002
     9  C    0.505363   0.003875   4.862389   0.480439  -0.018595  -0.034423
    10  C   -0.060002  -0.000188   0.480439   4.979745   0.557528   0.368742
    11  C   -0.036170   0.000012  -0.018595   0.557528   4.844851  -0.035700
    12  H    0.004391   0.000002  -0.034423   0.368742  -0.035700   0.583628
    13  C    0.477327  -0.006440  -0.031519  -0.061954  -0.032999   0.000565
    14  C   -0.022451   0.000274  -0.038135  -0.033923   0.506354   0.004050
    15  H   -0.039837   0.005126   0.003877   0.000543   0.004048   0.000017
    16  H    0.001117   0.000000   0.002476  -0.030686   0.375172  -0.004947
    17  H    0.002426  -0.000011   0.001102   0.003686  -0.036044  -0.000178
    18  C    0.008880   0.000010  -0.063946  -0.014569   0.000429   0.003910
    19  H   -0.000197   0.000000  -0.010605   0.000893   0.000037  -0.000068
    20  H   -0.000102  -0.000000   0.003798   0.000093  -0.000002  -0.000020
    21  H   -0.000248  -0.000000  -0.008981   0.003552   0.000179   0.002531
    22  O    0.000003   0.000000  -0.000552   0.000041   0.000002  -0.000003
    23  O   -0.001369  -0.000000   0.000743   0.000944  -0.000140   0.000068
    24  H    0.004046   0.000005   0.006387  -0.000777  -0.000082   0.000007
              13         14         15         16         17         18
     1  C   -0.000072   0.000049   0.000003   0.000002  -0.000000  -0.088939
     2  C    0.007144  -0.000397   0.000321  -0.000000   0.000003   0.007070
     3  C    0.011371  -0.000460  -0.000156  -0.000207   0.000014   0.368384
     4  H    0.000007  -0.000000  -0.000000  -0.000000   0.000000  -0.006592
     5  C   -0.078205   0.007605  -0.006963   0.000010  -0.000188   0.000044
     6  H   -0.000204   0.000003  -0.000010  -0.000000  -0.000000  -0.000206
     7  C    0.477327  -0.022451  -0.039837   0.001117   0.002426   0.008880
     8  H   -0.006440   0.000274   0.005126   0.000000  -0.000011   0.000010
     9  C   -0.031519  -0.038135   0.003877   0.002476   0.001102  -0.063946
    10  C   -0.061954  -0.033923   0.000543  -0.030686   0.003686  -0.014569
    11  C   -0.032999   0.506354   0.004048   0.375172  -0.036044   0.000429
    12  H    0.000565   0.004050   0.000017  -0.004947  -0.000178   0.003910
    13  C    4.970651   0.544466   0.374751   0.003675  -0.031159  -0.000154
    14  C    0.544466   4.858033  -0.037814  -0.036872   0.374275  -0.000010
    15  H    0.374751  -0.037814   0.578598  -0.000170  -0.004730   0.000002
    16  H    0.003675  -0.036872  -0.000170   0.570585  -0.004308   0.000005
    17  H   -0.031159   0.374275  -0.004730  -0.004308   0.570919  -0.000000
    18  C   -0.000154  -0.000010   0.000002   0.000005  -0.000000   5.158100
    19  H    0.000001  -0.000001  -0.000000  -0.000000  -0.000000   0.284013
    20  H    0.000002   0.000000  -0.000000  -0.000000  -0.000000   0.386514
    21  H   -0.000001  -0.000000   0.000000   0.000003  -0.000000   0.378215
    22  O   -0.000001  -0.000000   0.000000   0.000000  -0.000000  -0.008953
    23  O   -0.000038   0.000028  -0.000000  -0.000002   0.000000  -0.003030
    24  H    0.000125  -0.000122   0.000003   0.000001  -0.000000  -0.000209
              19         20         21         22         23         24
     1  C   -0.022532  -0.004287   0.004579   0.002529  -0.000467  -0.000173
     2  C   -0.000417   0.000266  -0.000194  -0.000196   0.000040   0.000424
     3  C   -0.058534  -0.030601  -0.019137  -0.001079   0.002510   0.000241
     4  H    0.000668   0.005065   0.000106   0.000036  -0.000007   0.000002
     5  C    0.000321  -0.000003   0.000014   0.000020  -0.000157   0.000883
     6  H    0.000001  -0.000009   0.000002  -0.000002   0.000000   0.000003
     7  C   -0.000197  -0.000102  -0.000248   0.000003  -0.001369   0.004046
     8  H    0.000000  -0.000000  -0.000000   0.000000  -0.000000   0.000005
     9  C   -0.010605   0.003798  -0.008981  -0.000552   0.000743   0.006387
    10  C    0.000893   0.000093   0.003552   0.000041   0.000944  -0.000777
    11  C    0.000037  -0.000002   0.000179   0.000002  -0.000140  -0.000082
    12  H   -0.000068  -0.000020   0.002531  -0.000003   0.000068   0.000007
    13  C    0.000001   0.000002  -0.000001  -0.000001  -0.000038   0.000125
    14  C   -0.000001   0.000000  -0.000000  -0.000000   0.000028  -0.000122
    15  H   -0.000000  -0.000000   0.000000   0.000000  -0.000000   0.000003
    16  H   -0.000000  -0.000000   0.000003   0.000000  -0.000002   0.000001
    17  H   -0.000000  -0.000000  -0.000000  -0.000000   0.000000  -0.000000
    18  C    0.284013   0.386514   0.378215  -0.008953  -0.003030  -0.000209
    19  H    0.721625  -0.028115  -0.014303   0.014382  -0.010051  -0.000506
    20  H   -0.028115   0.526923  -0.026166   0.000060   0.000085   0.000003
    21  H   -0.014303  -0.026166   0.520246   0.000084   0.000053   0.000012
    22  O    0.014382   0.000060   0.000084   8.082979   0.088491  -0.024954
    23  O   -0.010051   0.000085   0.000053   0.088491   7.913754   0.269483
    24  H   -0.000506   0.000003   0.000012  -0.024954   0.269483   0.367293
          Atomic-Atomic Spin Densities.
               1          2          3          4          5          6
     1  C    0.051380  -0.002922   0.003709   0.000083  -0.002688  -0.000092
     2  C   -0.002922  -0.017173   0.000254   0.000108   0.002780   0.000131
     3  C    0.003709   0.000254  -0.041506   0.000225  -0.000116  -0.000012
     4  H    0.000083   0.000108   0.000225  -0.002405   0.000007  -0.000008
     5  C   -0.002688   0.002780  -0.000116   0.000007   0.047199  -0.000064
     6  H   -0.000092   0.000131  -0.000012  -0.000008  -0.000064   0.000533
     7  C    0.000253  -0.000048   0.000967  -0.000006  -0.002852  -0.000011
     8  H    0.000006   0.000077  -0.000004   0.000001   0.000148   0.000003
     9  C    0.000840  -0.000085   0.000520   0.000017  -0.001217   0.000001
    10  C   -0.000051   0.000005   0.000694   0.000001   0.000008   0.000000
    11  C   -0.000001  -0.000000   0.000007  -0.000000   0.000013  -0.000000
    12  H    0.000001  -0.000000  -0.000015   0.000000  -0.000000   0.000000
    13  C    0.000010  -0.000004  -0.000026  -0.000000  -0.000727  -0.000000
    14  C   -0.000000   0.000001  -0.000009   0.000000   0.000016   0.000000
    15  H    0.000000  -0.000001   0.000000   0.000000  -0.000014   0.000000
    16  H    0.000000   0.000000   0.000001  -0.000000  -0.000000  -0.000000
    17  H   -0.000000   0.000000  -0.000000   0.000000  -0.000000  -0.000000
    18  C   -0.005380   0.000038  -0.012296  -0.000023   0.000077  -0.000000
    19  H    0.000775   0.000015   0.009697  -0.000145  -0.000029  -0.000000
    20  H    0.000021  -0.000004   0.000246   0.000038   0.000000  -0.000000
    21  H    0.000038   0.000002   0.000384  -0.000001  -0.000000  -0.000000
    22  O    0.001753  -0.000011   0.002498  -0.000006  -0.000028  -0.000000
    23  O   -0.000547   0.000010  -0.002832   0.000002   0.000069   0.000000
    24  H    0.000138  -0.000032   0.000378  -0.000000  -0.000095  -0.000000
               7          8          9         10         11         12
     1  C    0.000253   0.000006   0.000840  -0.000051  -0.000001   0.000001
     2  C   -0.000048   0.000077  -0.000085   0.000005  -0.000000  -0.000000
     3  C    0.000967  -0.000004   0.000520   0.000694   0.000007  -0.000015
     4  H   -0.000006   0.000001   0.000017   0.000001  -0.000000   0.000000
     5  C   -0.002852   0.000148  -0.001217   0.000008   0.000013  -0.000000
     6  H   -0.000011   0.000003   0.000001   0.000000  -0.000000   0.000000
     7  C   -0.012907   0.000088   0.001721  -0.000124  -0.000097  -0.000009
     8  H    0.000088  -0.002330   0.000004   0.000001  -0.000000  -0.000000
     9  C    0.001721   0.000004   0.022921   0.000119  -0.000467  -0.000062
    10  C   -0.000124   0.000001   0.000119  -0.009693  -0.000048  -0.000016
    11  C   -0.000097  -0.000000  -0.000467  -0.000048   0.008210   0.000003
    12  H   -0.000009  -0.000000  -0.000062  -0.000016   0.000003   0.000511
    13  C    0.001028  -0.000024   0.000020  -0.000002  -0.000231   0.000001
    14  C    0.000381  -0.000000  -0.000047   0.000320   0.000621  -0.000003
    15  H    0.000055  -0.000014   0.000004   0.000001   0.000001  -0.000000
    16  H    0.000000  -0.000000   0.000006   0.000015  -0.000005   0.000002
    17  H   -0.000004  -0.000000   0.000001  -0.000000  -0.000021  -0.000000
    18  C   -0.000092   0.000000  -0.002768   0.000361   0.000014   0.000008
    19  H   -0.000026   0.000000   0.001157  -0.000151  -0.000006   0.000015
    20  H    0.000002  -0.000000  -0.000025  -0.000004   0.000000   0.000001
    21  H    0.000007   0.000000  -0.000041   0.000005  -0.000000   0.000016
    22  O    0.000035  -0.000000   0.000427  -0.000051  -0.000000  -0.000001
    23  O   -0.000056   0.000000  -0.001755   0.000394   0.000038   0.000010
    24  H    0.000003   0.000000   0.000265  -0.000028  -0.000011  -0.000000
              13         14         15         16         17         18
     1  C    0.000010  -0.000000   0.000000   0.000000  -0.000000  -0.005380
     2  C   -0.000004   0.000001  -0.000001   0.000000   0.000000   0.000038
     3  C   -0.000026  -0.000009   0.000000   0.000001  -0.000000  -0.012296
     4  H   -0.000000   0.000000   0.000000  -0.000000   0.000000  -0.000023
     5  C   -0.000727   0.000016  -0.000014  -0.000000  -0.000000   0.000077
     6  H   -0.000000   0.000000   0.000000  -0.000000  -0.000000  -0.000000
     7  C    0.001028   0.000381   0.000055   0.000000  -0.000004  -0.000092
     8  H   -0.000024  -0.000000  -0.000014  -0.000000  -0.000000   0.000000
     9  C    0.000020  -0.000047   0.000004   0.000006   0.000001  -0.002768
    10  C   -0.000002   0.000320   0.000001   0.000015  -0.000000   0.000361
    11  C   -0.000231   0.000621   0.000001  -0.000005  -0.000021   0.000014
    12  H    0.000001  -0.000003  -0.000000   0.000002  -0.000000   0.000008
    13  C    0.007453  -0.000416  -0.000014   0.000001  -0.000019  -0.000003
    14  C   -0.000416  -0.008531   0.000030   0.000028   0.000000   0.000000
    15  H   -0.000014   0.000030  -0.000359   0.000000  -0.000002   0.000000
    16  H    0.000001   0.000028   0.000000  -0.000411  -0.000001  -0.000000
    17  H   -0.000019   0.000000  -0.000002  -0.000001   0.000366  -0.000000
    18  C   -0.000003   0.000000   0.000000  -0.000000  -0.000000   0.140963
    19  H   -0.000000   0.000001   0.000000  -0.000000   0.000000   0.020764
    20  H    0.000000  -0.000000   0.000000   0.000000  -0.000000  -0.003669
    21  H    0.000000  -0.000000   0.000000   0.000000  -0.000000  -0.002090
    22  O    0.000000  -0.000000   0.000000   0.000000  -0.000000  -0.007518
    23  O   -0.000008  -0.000000  -0.000000  -0.000000   0.000000   0.004164
    24  H    0.000015   0.000001   0.000000   0.000000  -0.000000  -0.000147
              19         20         21         22         23         24
     1  C    0.000775   0.000021   0.000038   0.001753  -0.000547   0.000138
     2  C    0.000015  -0.000004   0.000002  -0.000011   0.000010  -0.000032
     3  C    0.009697   0.000246   0.000384   0.002498  -0.002832   0.000378
     4  H   -0.000145   0.000038  -0.000001  -0.000006   0.000002  -0.000000
     5  C   -0.000029   0.000000  -0.000000  -0.000028   0.000069  -0.000095
     6  H   -0.000000  -0.000000  -0.000000  -0.000000   0.000000  -0.000000
     7  C   -0.000026   0.000002   0.000007   0.000035  -0.000056   0.000003
     8  H    0.000000  -0.000000   0.000000  -0.000000   0.000000   0.000000
     9  C    0.001157  -0.000025  -0.000041   0.000427  -0.001755   0.000265
    10  C   -0.000151  -0.000004   0.000005  -0.000051   0.000394  -0.000028
    11  C   -0.000006   0.000000  -0.000000  -0.000000   0.000038  -0.000011
    12  H    0.000015   0.000001   0.000016  -0.000001   0.000010  -0.000000
    13  C   -0.000000   0.000000   0.000000   0.000000  -0.000008   0.000015
    14  C    0.000001  -0.000000  -0.000000  -0.000000  -0.000000   0.000001
    15  H    0.000000   0.000000   0.000000   0.000000  -0.000000   0.000000
    16  H   -0.000000   0.000000   0.000000   0.000000  -0.000000   0.000000
    17  H    0.000000  -0.000000  -0.000000  -0.000000   0.000000  -0.000000
    18  C    0.020764  -0.003669  -0.002090  -0.007518   0.004164  -0.000147
    19  H   -0.109299   0.003746   0.001079  -0.015974   0.003900  -0.000112
    20  H    0.003746  -0.006679   0.000242   0.000229  -0.000044   0.000002
    21  H    0.001079   0.000242  -0.004934   0.000133  -0.000132   0.000004
    22  O   -0.015974   0.000229   0.000133   0.852622  -0.082981   0.000274
    23  O    0.003900  -0.000044  -0.000132  -0.082981   0.258207  -0.000801
    24  H   -0.000112   0.000002   0.000004   0.000274  -0.000801  -0.006751
 Mulliken charges and spin densities:
               1          2
     1  C   -0.158664   0.047326
     2  C   -0.113393  -0.016859
     3  C    0.085701  -0.037234
     4  H    0.113551  -0.002114
     5  C   -0.164055   0.042486
     6  H    0.124710   0.000480
     7  C    0.054340  -0.011690
     8  H    0.116739  -0.002044
     9  C   -0.016966   0.021555
    10  C   -0.128593  -0.008244
    11  C   -0.135507   0.008020
    12  H    0.119247   0.000461
    13  C   -0.147341   0.007056
    14  C   -0.124950  -0.007607
    15  H    0.122392  -0.000311
    16  H    0.124145  -0.000363
    17  H    0.124194   0.000320
    18  C   -0.408970   0.132404
    19  H    0.123388  -0.084594
    20  H    0.166496  -0.005899
    21  H    0.159455  -0.005288
    22  O   -0.152886   0.751400
    23  O   -0.260938   0.177637
    24  H    0.377905  -0.006897
 Sum of Mulliken charges =  -0.00000   1.00000
 Mulliken charges and spin densities with hydrogens summed into heavy atoms:
               1          2
     1  C   -0.045113   0.045212
     2  C    0.011317  -0.016379
     3  C    0.085701  -0.037234
     5  C   -0.047316   0.040442
     7  C    0.054340  -0.011690
     9  C   -0.016966   0.021555
    10  C   -0.009347  -0.007783
    11  C   -0.011361   0.007657
    13  C   -0.024949   0.006744
    14  C   -0.000756  -0.007287
    18  C    0.040369   0.036623
    22  O   -0.152886   0.751400
    23  O    0.116968   0.170740
 APT charges:
               1
     1  C   -0.461056
     2  C   -0.505438
     3  C   -0.202036
     4  H    0.588430
     5  C   -0.513566
     6  H    0.695146
     7  C   -0.401552
     8  H    0.591903
     9  C   -0.441120
    10  C   -0.546484
    11  C   -0.445772
    12  H    0.442932
    13  C   -0.515582
    14  C   -0.480012
    15  H    0.599033
    16  H    0.689097
    17  H    0.775658
    18  C   -1.041257
    19  H    0.171127
    20  H    0.622726
    21  H    0.407318
    22  O   -0.195668
    23  O   -0.023120
    24  H    0.189296
 Sum of APT charges =  -0.00000
 APT charges with hydrogens summed into heavy atoms:
               1
     1  C    0.127373
     2  C    0.189708
     3  C   -0.202036
     5  C    0.078336
     7  C   -0.401552
     9  C   -0.441120
    10  C   -0.103552
    11  C    0.243325
    13  C    0.083450
    14  C    0.295645
    18  C    0.159915
    22  O   -0.195668
    23  O    0.166176
 Electronic spatial extent (au):  <R**2>=           2233.2160
 Charge=             -0.0000 electrons
 Dipole moment (field-independent basis, Debye):
    X=             -1.0152    Y=              0.7437    Z=             -0.3983  Tot=              1.3200
 Quadrupole moment (field-independent basis, Debye-Ang):
   XX=            -72.3298   YY=            -73.6891   ZZ=            -76.9604
   XY=              4.5716   XZ=             -6.8841   YZ=              6.9662
 Traceless Quadrupole moment (field-independent basis, Debye-Ang):
   XX=              1.9967   YY=              0.6373   ZZ=             -2.6340
   XY=              4.5716   XZ=             -6.8841   YZ=              6.9662
 Octapole moment (field-independent basis, Debye-Ang**2):
  XXX=             -1.5847  YYY=             -1.9185  ZZZ=             18.8937  XYY=             -2.4032
  XXY=              2.1201  XXZ=             -1.9132  XZZ=              6.7804  YZZ=             -5.2205
  YYZ=              0.4447  XYZ=              1.6978
 Hexadecapole moment (field-independent basis, Debye-Ang**3):
 XXXX=          -1451.0123 YYYY=           -891.0709 ZZZZ=           -489.6476 XXXY=             26.8207
 XXXZ=            -43.6611 YYYX=             13.6516 YYYZ=             29.7478 ZZZX=             19.1571
 ZZZY=             -6.7300 XXYY=           -394.6413 XXZZ=           -344.7857 YYZZ=           -241.5574
 XXYZ=             15.1126 YYXZ=             -4.6391 ZZXY=             -8.2213
 N-N= 7.535776043433D+02 E-N=-2.846591576069D+03  KE= 5.706748410283D+02
  Exact polarizability:   0.000   0.000   0.000   0.000   0.000   0.000
 Approx polarizability: 219.515  20.649 191.249 -26.410  27.584 116.700
                          Isotropic Fermi Contact Couplings
        Atom                 a.u.       MegaHertz       Gauss      10(-4) cm-1
     1  C(13)              0.00775       8.70895       3.10757       2.90499
     2  C(13)             -0.00432      -4.85831      -1.73357      -1.62056
     3  C(13)             -0.01148     -12.90690      -4.60550      -4.30528
     4  H(1)              -0.00069      -3.08784      -1.10182      -1.02999
     5  C(13)              0.00695       7.80852       2.78628       2.60464
     6  H(1)               0.00017       0.74856       0.26710       0.24969
     7  C(13)             -0.00335      -3.76808      -1.34455      -1.25690
     8  H(1)              -0.00065      -2.88836      -1.03064      -0.96345
     9  C(13)              0.00451       5.07141       1.80960       1.69164
    10  C(13)             -0.00213      -2.39653      -0.85514      -0.79940
    11  C(13)              0.00151       1.70265       0.60755       0.56794
    12  H(1)               0.00010       0.45813       0.16347       0.15282
    13  C(13)              0.00140       1.57031       0.56033       0.52380
    14  C(13)             -0.00148      -1.66285      -0.59335      -0.55467
    15  H(1)              -0.00011      -0.48590      -0.17338      -0.16208
    16  H(1)              -0.00012      -0.53756      -0.19182      -0.17931
    17  H(1)               0.00010       0.45710       0.16310       0.15247
    18  C(13)              0.01338      15.03743       5.36573       5.01595
    19  H(1)              -0.02301    -102.85349     -36.70068     -34.30823
    20  H(1)              -0.00281     -12.57583      -4.48737      -4.19484
    21  H(1)              -0.00191      -8.52049      -3.04032      -2.84213
    22  O(17)              0.11015     -66.77028     -23.82530     -22.27217
    23  O(17)              0.05129     -31.09160     -11.09426     -10.37104
    24  H(1)              -0.00405     -18.12223      -6.46646      -6.04493
 --------------------------------------------------------
       Center         ----  Spin Dipole Couplings  ----
                      3XX-RR        3YY-RR        3ZZ-RR
 --------------------------------------------------------
     1   Atom       -0.016225     -0.010102      0.026327
     2   Atom        0.003351      0.004474     -0.007825
     3   Atom        0.005088      0.005119     -0.010207
     4   Atom        0.000274     -0.000298      0.000023
     5   Atom       -0.013792     -0.009462      0.023254
     6   Atom       -0.000481      0.001726     -0.001245
     7   Atom        0.004129      0.002471     -0.006601
     8   Atom       -0.000951      0.001184     -0.000233
     9   Atom       -0.006395     -0.007459      0.013853
    10   Atom        0.004421     -0.000193     -0.004227
    11   Atom       -0.000649     -0.003039      0.003687
    12   Atom        0.001232     -0.001769      0.000538
    13   Atom       -0.000535     -0.002262      0.002796
    14   Atom        0.003655      0.001163     -0.004818
    15   Atom        0.001022     -0.000330     -0.000692
    16   Atom        0.000895     -0.000314     -0.000580
    17   Atom        0.000686     -0.000163     -0.000523
    18   Atom       -0.038913     -0.038289      0.077202
    19   Atom       -0.023610     -0.029877      0.053487
    20   Atom        0.005384     -0.008139      0.002755
    21   Atom       -0.007124      0.005051      0.002072
    22   Atom       -1.330196     -1.442713      2.772910
    23   Atom       -0.556107     -0.498320      1.054428
    24   Atom        0.006926      0.013798     -0.020724
 --------------------------------------------------------
                        XY            XZ            YZ
 --------------------------------------------------------
     1   Atom       -0.008099      0.016841     -0.022912
     2   Atom       -0.000011     -0.004477      0.004121
     3   Atom        0.005639     -0.011419      0.012926
     4   Atom        0.001189     -0.000806     -0.004390
     5   Atom       -0.009897      0.016484     -0.020549
     6   Atom       -0.000786     -0.000309     -0.000569
     7   Atom       -0.000594     -0.002090      0.003338
     8   Atom       -0.003787     -0.000817      0.001155
     9   Atom       -0.006756      0.012537     -0.013515
    10   Atom        0.001658      0.000005      0.002972
    11   Atom       -0.000847      0.004298     -0.003323
    12   Atom        0.001862      0.002538      0.000551
    13   Atom       -0.002147      0.002760     -0.003138
    14   Atom        0.000870     -0.002229      0.003105
    15   Atom       -0.001078     -0.000183      0.000079
    16   Atom        0.000880      0.000975      0.000177
    17   Atom       -0.000200      0.000243      0.000182
    18   Atom       -0.022939      0.058210     -0.058939
    19   Atom       -0.000511      0.015738     -0.002837
    20   Atom        0.002993     -0.003017     -0.004221
    21   Atom        0.005087      0.004909      0.002148
    22   Atom        0.025307      0.566911     -0.014285
    23   Atom       -0.077039      0.233207     -0.061766
    24   Atom       -0.037693     -0.004974      0.006510
 --------------------------------------------------------


 ---------------------------------------------------------------------------------
              Anisotropic Spin Dipole Couplings in Principal Axis System
 ---------------------------------------------------------------------------------

       Atom             a.u.   MegaHertz   Gauss  10(-4) cm-1        Axes

              Baa    -0.0221    -2.965    -1.058    -0.989  0.9537  0.1083 -0.2804
     1 C(13)  Bbb    -0.0212    -2.839    -1.013    -0.947  0.0231  0.9036  0.4278
              Bcc     0.0433     5.804     2.071     1.936  0.2997 -0.4145  0.8593
 
              Baa    -0.0104    -1.398    -0.499    -0.466  0.2989 -0.2543  0.9198
     2 C(13)  Bbb     0.0038     0.517     0.184     0.172  0.7908  0.6055 -0.0896
              Bcc     0.0066     0.882     0.315     0.294 -0.5341  0.7542  0.3820
 
              Baa    -0.0233    -3.123    -1.114    -1.042  0.4092 -0.4442  0.7970
     3 C(13)  Bbb     0.0105     1.415     0.505     0.472  0.8590  0.4820 -0.1724
              Bcc     0.0127     1.708     0.609     0.570 -0.3076  0.7552  0.5788
 
              Baa    -0.0045    -2.427    -0.866    -0.810 -0.0643  0.7255  0.6852
     4 H(1)   Bbb    -0.0002    -0.082    -0.029    -0.027  0.9508 -0.1640  0.2630
              Bcc     0.0047     2.509     0.895     0.837 -0.3032 -0.6684  0.6792
 
              Baa    -0.0218    -2.920    -1.042    -0.974  0.7756  0.6312  0.0041
     5 C(13)  Bbb    -0.0182    -2.446    -0.873    -0.816 -0.5345  0.6534  0.5361
              Bcc     0.0400     5.366     1.915     1.790  0.3357 -0.4180  0.8441
 
              Baa    -0.0016    -0.835    -0.298    -0.278  0.4307  0.2527  0.8664
     6 H(1)   Bbb    -0.0005    -0.253    -0.090    -0.085  0.8582  0.1824 -0.4798
              Bcc     0.0020     1.088     0.388     0.363 -0.2792  0.9502 -0.1383
 
              Baa    -0.0080    -1.069    -0.381    -0.357  0.1487 -0.2935  0.9443
     7 C(13)  Bbb     0.0027     0.364     0.130     0.121  0.5725  0.8042  0.1598
              Bcc     0.0053     0.705     0.252     0.235  0.8063 -0.5169 -0.2876
 
              Baa    -0.0038    -2.037    -0.727    -0.680  0.7957  0.6055 -0.0138
     8 H(1)   Bbb    -0.0007    -0.351    -0.125    -0.117  0.1848 -0.2209  0.9576
              Bcc     0.0045     2.388     0.852     0.797 -0.5768  0.7645  0.2877
 
              Baa    -0.0142    -1.906    -0.680    -0.636  0.2943  0.9058  0.3048
     9 C(13)  Bbb    -0.0124    -1.658    -0.591    -0.553  0.8696 -0.1215 -0.4787
              Bcc     0.0266     3.563     1.271     1.189  0.3965 -0.4059  0.8234
 
              Baa    -0.0059    -0.787    -0.281    -0.262  0.0771 -0.4806  0.8736
    10 C(13)  Bbb     0.0008     0.107     0.038     0.036 -0.3674  0.8008  0.4729
              Bcc     0.0051     0.679     0.242     0.227  0.9269  0.3574  0.1149
 
              Baa    -0.0047    -0.635    -0.227    -0.212 -0.3563  0.7926  0.4947
    11 C(13)  Bbb    -0.0026    -0.354    -0.126    -0.118  0.8047  0.5294 -0.2686
              Bcc     0.0074     0.989     0.353     0.330  0.4748 -0.3024  0.8265
 
              Baa    -0.0028    -1.511    -0.539    -0.504 -0.5366  0.7982  0.2738
    12 H(1)   Bbb    -0.0012    -0.622    -0.222    -0.207 -0.3934 -0.5236  0.7557
              Bcc     0.0040     2.133     0.761     0.711  0.7465  0.2978  0.5950
 
              Baa    -0.0040    -0.541    -0.193    -0.180  0.3325  0.9007  0.2796
    13 C(13)  Bbb    -0.0020    -0.275    -0.098    -0.092  0.8223 -0.1317 -0.5536
              Bcc     0.0061     0.816     0.291     0.272  0.4618 -0.4140  0.7844
 
              Baa    -0.0067    -0.898    -0.320    -0.300  0.2252 -0.3797  0.8973
    14 C(13)  Bbb     0.0025     0.333     0.119     0.111  0.0389  0.9237  0.3811
              Bcc     0.0042     0.565     0.202     0.188  0.9735  0.0509 -0.2228
 
              Baa    -0.0009    -0.495    -0.177    -0.165  0.4883  0.8682  0.0878
    15 H(1)   Bbb    -0.0007    -0.377    -0.135    -0.126  0.0314 -0.1181  0.9925
              Bcc     0.0016     0.873     0.311     0.291  0.8721 -0.4819 -0.0849
 
              Baa    -0.0012    -0.621    -0.222    -0.207 -0.5243  0.3851  0.7594
    16 H(1)   Bbb    -0.0006    -0.311    -0.111    -0.104 -0.1499  0.8362 -0.5275
              Bcc     0.0017     0.932     0.333     0.311  0.8382  0.3904  0.3808
 
              Baa    -0.0007    -0.356    -0.127    -0.119 -0.2197 -0.4068  0.8867
    17 H(1)   Bbb    -0.0001    -0.051    -0.018    -0.017  0.0944  0.8958  0.4343
              Bcc     0.0008     0.407     0.145     0.136  0.9710 -0.1791  0.1584
 
              Baa    -0.0642    -8.614    -3.074    -2.873  0.6124 -0.6078 -0.5055
    18 C(13)  Bbb    -0.0615    -8.258    -2.947    -2.755  0.7062  0.7080  0.0044
              Bcc     0.1257    16.872     6.020     5.628  0.3552 -0.3597  0.8628
 
              Baa    -0.0300   -15.993    -5.707    -5.335 -0.0071  0.9994  0.0353
    19 H(1)   Bbb    -0.0267   -14.245    -5.083    -4.752  0.9813  0.0137 -0.1921
              Bcc     0.0567    30.237    10.789    10.086  0.1925 -0.0333  0.9807
 
              Baa    -0.0098    -5.243    -1.871    -1.749 -0.1298  0.9490  0.2873
    20 H(1)   Bbb     0.0011     0.563     0.201     0.188  0.6311 -0.1444  0.7621
              Bcc     0.0088     4.679     1.670     1.561  0.7647  0.2802 -0.5802
 
              Baa    -0.0103    -5.482    -1.956    -1.828  0.9123 -0.2583 -0.3178
    21 H(1)   Bbb     0.0012     0.626     0.224     0.209  0.1117 -0.5897  0.7999
              Bcc     0.0091     4.855     1.732     1.620  0.3940  0.7652  0.5091
 
              Baa    -1.4573   105.447    37.626    35.173 -0.4692  0.8806  0.0659
    22 O(17)  Bbb    -1.3926   100.765    35.955    33.611  0.8728  0.4738 -0.1172
              Bcc     2.8498  -206.211   -73.581   -68.785  0.1344 -0.0025  0.9909
 
              Baa    -0.6259    45.289    16.160    15.107  0.8728  0.4769 -0.1036
    23 O(17)  Bbb    -0.4649    33.640    12.003    11.221 -0.4669  0.8778  0.1074
              Bcc     1.0908   -78.928   -28.164   -26.328  0.1421 -0.0453  0.9888
 
              Baa    -0.0276   -14.712    -5.250    -4.907  0.7245  0.6789 -0.1191
    24 H(1)   Bbb    -0.0216   -11.520    -4.111    -3.843  0.1662 -0.0044  0.9861
              Bcc     0.0492    26.232     9.360     8.750 -0.6689  0.7343  0.1160
 

 ---------------------------------------------------------------------------------

 Calling FoFJK, ICntrl=    100147 FMM=F ISym2X=0 I1Cent= 0 IOpClX= 1 NMat=1 NMatS=1 NMatT=0.
 ***** Axes restored to original set *****
 -------------------------------------------------------------------
 Center     Atomic                   Forces (Hartrees/Bohr)
 Number     Number              X              Y              Z
 -------------------------------------------------------------------
      1        6          -0.009699447   -0.020316302   -0.009532031
      2        6          -0.008648751    0.000583024    0.004807000
      3        6          -0.044576773    0.071176077    0.021676106
      4        1           0.000241614   -0.000063782   -0.000476707
      5        6           0.000696651   -0.002558871   -0.000871449
      6        1           0.000050415    0.000335371   -0.000012608
      7        6           0.004620252    0.010351925    0.004055676
      8        1          -0.000183814    0.000081585   -0.000150398
      9        6           0.019178437    0.005150090   -0.005109161
     10        6          -0.006375869   -0.006139649   -0.000497016
     11        6           0.005120111   -0.002657049   -0.002966904
     12        1          -0.000212702   -0.000430278   -0.000351890
     13        6          -0.003716834   -0.003257225    0.000064495
     14        6          -0.000027553    0.004861771    0.002178485
     15        1           0.000044156    0.000146683    0.000006015
     16        1           0.000013383   -0.000075653   -0.000088854
     17        1          -0.000153620    0.000013564    0.000028142
     18        6           0.080087427   -0.068635279    0.076746175
     19        1          -0.023111560   -0.000508563   -0.059729299
     20        1          -0.006758931    0.008512773   -0.019372418
     21        1          -0.003398190    0.003351195   -0.008626972
     22        8          -0.063268614   -0.022716738    0.003307724
     23        8           0.063873890    0.018182296   -0.003735621
     24        1          -0.003793679    0.004613036   -0.001348489
 -------------------------------------------------------------------
 Cartesian Forces:  Max     0.080087427 RMS     0.023471527
 FormGI is forming the generalized inverse of G from B-inverse, IUseBI=4.

 GradGradGradGradGradGradGradGradGradGradGradGradGradGradGradGradGradGrad
 Berny optimization.
 Internal  Forces:  Max     0.068169455 RMS     0.011665538
 Search for a saddle point.
 Step number   1 out of a maximum of  144
 All quantities printed in internal units (Hartrees-Bohrs-Radians)
 Swapping is turned off.
 Second derivative matrix not updated -- analytic derivatives used.
 ITU=  0
     Eigenvalues ---   -0.03773  -0.00646   0.00088   0.00729   0.00990
     Eigenvalues ---    0.01261   0.01520   0.01653   0.01679   0.01808
     Eigenvalues ---    0.01950   0.02122   0.02198   0.02234   0.02335
     Eigenvalues ---    0.02395   0.02446   0.02470   0.02709   0.02766
     Eigenvalues ---    0.02793   0.02913   0.05191   0.06545   0.07928
     Eigenvalues ---    0.09187   0.10832   0.11041   0.11537   0.11605
     Eigenvalues ---    0.12050   0.12231   0.12396   0.12499   0.15995
     Eigenvalues ---    0.17509   0.18493   0.18918   0.19163   0.19620
     Eigenvalues ---    0.20467   0.21065   0.28125   0.29173   0.30023
     Eigenvalues ---    0.30722   0.34733   0.35956   0.35998   0.36164
     Eigenvalues ---    0.36450   0.36522   0.36678   0.36705   0.36890
     Eigenvalues ---    0.37823   0.39994   0.41956   0.43993   0.45502
     Eigenvalues ---    0.47121   0.50405   0.50642   0.53058   0.53567
     Eigenvalues ---    0.53892
 Eigenvectors required to have negative eigenvalues:
                          R23       R20       A38       D54       D22
   1                    0.79194  -0.43316  -0.21534   0.17416   0.12470
                          D19       A34       R24       D51       D18
   1                    0.10584   0.10081  -0.09729   0.09662  -0.09390
 RFO step:  Lambda0=2.885827761D-02 Lambda=-7.71192238D-02.
 Linear search not attempted -- option 19 set.
 Maximum step size (   0.300) exceeded in Quadratic search.
    -- Step size scaled by   0.308
 Iteration  1 RMS(Cart)=  0.11858759 RMS(Int)=  0.01084581
 Iteration  2 RMS(Cart)=  0.01394471 RMS(Int)=  0.00011500
 Iteration  3 RMS(Cart)=  0.00008473 RMS(Int)=  0.00009949
 Iteration  4 RMS(Cart)=  0.00000002 RMS(Int)=  0.00009949
 Variable       Old X    -DE/DX   Delta X   Delta X   Delta X     New X
                                 (Linear)    (Quad)   (Total)
    R1        2.63883   0.00726   0.00000   0.00516   0.00515   2.64398
    R2        2.67249  -0.02016   0.00000  -0.01356  -0.01355   2.65893
    R3        2.05147   0.00035   0.00000   0.00049   0.00049   2.05196
    R4        2.60523  -0.00595   0.00000  -0.00155  -0.00155   2.60368
    R5        2.04931   0.00031   0.00000   0.00005   0.00005   2.04936
    R6        2.75985  -0.01389   0.00000  -0.01000  -0.01000   2.74986
    R7        2.63691   0.06817   0.00000   0.03179   0.03179   2.66870
    R8        2.69442  -0.00806   0.00000  -0.00385  -0.00385   2.69057
    R9        2.05037   0.00007   0.00000   0.00025   0.00025   2.05062
   R10        2.68795   0.00478   0.00000   0.00209   0.00209   2.69004
   R11        2.67984   0.00253   0.00000   0.00141   0.00141   2.68125
   R12        2.67029   0.00691   0.00000   0.00362   0.00362   2.67391
   R13        2.60094  -0.00382   0.00000  -0.00322  -0.00322   2.59772
   R14        2.04741   0.00040   0.00000  -0.00047  -0.00047   2.04694
   R15        2.66406   0.00415   0.00000   0.00252   0.00251   2.66658
   R16        2.04963   0.00008   0.00000   0.00019   0.00019   2.04982
   R17        2.59437  -0.00195   0.00000  -0.00216  -0.00216   2.59221
   R18        2.05196   0.00008   0.00000   0.00013   0.00013   2.05209
   R19        2.04894   0.00015   0.00000   0.00051   0.00051   2.04946
   R20        2.74376  -0.06450   0.00000  -0.10714  -0.10714   2.63662
   R21        2.04918   0.00165   0.00000   0.00148   0.00148   2.05066
   R22        2.04224   0.00066   0.00000  -0.00019  -0.00019   2.04205
   R23        3.54367  -0.00217   0.00000  -0.24758  -0.24758   3.29609
   R24        2.69253  -0.06436   0.00000  -0.04976  -0.04976   2.64276
   R25        1.83206   0.00571   0.00000   0.00249   0.00249   1.83455
    A1        2.13242   0.00161   0.00000  -0.00064  -0.00065   2.13177
    A2        2.08999  -0.00054   0.00000  -0.00069  -0.00070   2.08929
    A3        2.06077  -0.00106   0.00000   0.00132   0.00131   2.06208
    A4        2.10083   0.00106   0.00000  -0.00064  -0.00064   2.10018
    A5        2.08687  -0.00045   0.00000   0.00010   0.00011   2.08698
    A6        2.09548  -0.00061   0.00000   0.00053   0.00054   2.09602
    A7        2.05503  -0.00030   0.00000   0.00299   0.00300   2.05803
    A8        2.08041   0.00691   0.00000   0.00379   0.00379   2.08419
    A9        2.14765  -0.00662   0.00000  -0.00681  -0.00682   2.14083
   A10        2.10436  -0.00468   0.00000  -0.00134  -0.00134   2.10302
   A11        2.10971   0.00246   0.00000   0.00016   0.00017   2.10988
   A12        2.06909   0.00223   0.00000   0.00118   0.00119   2.07027
   A13        2.09554  -0.00059   0.00000  -0.00162  -0.00162   2.09392
   A14        2.10382   0.00173   0.00000   0.00082   0.00081   2.10463
   A15        2.08377  -0.00114   0.00000   0.00083   0.00084   2.08460
   A16        2.07805   0.00291   0.00000   0.00114   0.00112   2.07917
   A17        2.14072  -0.00212   0.00000   0.00056   0.00053   2.14125
   A18        2.06435  -0.00080   0.00000  -0.00158  -0.00159   2.06277
   A19        2.11559  -0.00007   0.00000  -0.00002  -0.00001   2.11558
   A20        2.09055   0.00043   0.00000   0.00008   0.00007   2.09062
   A21        2.07701  -0.00036   0.00000  -0.00003  -0.00004   2.07697
   A22        2.10195   0.00030   0.00000   0.00095   0.00095   2.10290
[...]
    13  C    0.001761  -0.000097   0.000093   0.000197  -0.001306   0.000015
    14  C    0.000912  -0.000002   0.000338   0.000519  -0.000551  -0.000031
    15  H    0.000181  -0.000038   0.000009   0.000005   0.000002   0.000000
    16  H    0.000002  -0.000000   0.000009   0.000046   0.000036   0.000018
    17  H   -0.000018  -0.000000   0.000005  -0.000016  -0.000076  -0.000001
    18  C   -0.000070   0.000000  -0.005953   0.001003   0.000045   0.000053
    19  H   -0.000049   0.000000  -0.000297  -0.000022   0.000009   0.000203
    20  H    0.000014  -0.000000  -0.000117  -0.000021   0.000000  -0.000013
    21  H    0.000040   0.000000   0.000022  -0.000119  -0.000002  -0.000031
    22  O    0.000018   0.000000   0.001106  -0.000265  -0.000015  -0.000429
    23  O   -0.000026  -0.000000  -0.002396   0.000550   0.000041   0.000138
    24  H    0.000006  -0.000000  -0.000003   0.000001  -0.000000  -0.000007
              13         14         15         16         17         18
     1  C    0.000026   0.000002   0.000000  -0.000000   0.000000  -0.011961
     2  C    0.000002   0.000002  -0.000003   0.000000  -0.000000   0.000314
     3  C   -0.000118   0.000006   0.000000   0.000000   0.000000  -0.030472
     4  H   -0.000000   0.000000   0.000000   0.000000  -0.000000  -0.000183
     5  C   -0.002651  -0.000010  -0.000058   0.000000  -0.000001   0.000153
     6  H   -0.000001   0.000000   0.000000  -0.000000   0.000000  -0.000006
     7  C    0.001761   0.000912   0.000181   0.000002  -0.000018  -0.000070
     8  H   -0.000097  -0.000002  -0.000038  -0.000000  -0.000000   0.000000
     9  C    0.000093   0.000338   0.000009   0.000009   0.000005  -0.005953
    10  C    0.000197   0.000519   0.000005   0.000046  -0.000016   0.001003
    11  C   -0.001306  -0.000551   0.000002   0.000036  -0.000076   0.000045
    12  H    0.000015  -0.000031   0.000000   0.000018  -0.000001   0.000053
    13  C    0.028046   0.000561  -0.000018   0.000000  -0.000039  -0.000006
    14  C    0.000561  -0.025831   0.000099   0.000098   0.000037  -0.000001
    15  H   -0.000018   0.000099  -0.001391   0.000001  -0.000003   0.000000
    16  H    0.000000   0.000098   0.000001  -0.001721   0.000001   0.000000
    17  H   -0.000039   0.000037  -0.000003   0.000001   0.001058  -0.000000
    18  C   -0.000006  -0.000001   0.000000   0.000000  -0.000000   0.502403
    19  H   -0.000001   0.000001   0.000000  -0.000000   0.000000   0.052646
    20  H    0.000000  -0.000000   0.000000   0.000000  -0.000000  -0.005815
    21  H    0.000000   0.000000   0.000000  -0.000000  -0.000000  -0.009063
    22  O    0.000001  -0.000000   0.000000   0.000000  -0.000000  -0.064990
    23  O   -0.000007  -0.000001  -0.000000  -0.000000   0.000000   0.010734
    24  H    0.000000  -0.000000   0.000000   0.000000  -0.000000  -0.000171
              19         20         21         22         23         24
     1  C   -0.000329  -0.000395  -0.000297   0.000638  -0.000982   0.000061
     2  C   -0.000018   0.000032   0.000024   0.000004  -0.000004   0.000003
     3  C    0.006086   0.000684   0.000795   0.004662  -0.003882  -0.000203
     4  H   -0.000006  -0.000184  -0.000017  -0.000009   0.000006  -0.000000
     5  C    0.000008  -0.000001   0.000001  -0.000006   0.000067  -0.000005
     6  H   -0.000000  -0.000001  -0.000000  -0.000000   0.000000  -0.000000
     7  C   -0.000049   0.000014   0.000040   0.000018  -0.000026   0.000006
     8  H    0.000000  -0.000000   0.000000   0.000000  -0.000000  -0.000000
     9  C   -0.000297  -0.000117   0.000022   0.001106  -0.002396  -0.000003
    10  C   -0.000022  -0.000021  -0.000119  -0.000265   0.000550   0.000001
    11  C    0.000009   0.000000  -0.000002  -0.000015   0.000041  -0.000000
    12  H    0.000203  -0.000013  -0.000031  -0.000429   0.000138  -0.000007
    13  C   -0.000001   0.000000   0.000000   0.000001  -0.000007   0.000000
    14  C    0.000001  -0.000000   0.000000  -0.000000  -0.000001  -0.000000
    15  H    0.000000   0.000000   0.000000   0.000000  -0.000000   0.000000
    16  H   -0.000000   0.000000  -0.000000   0.000000  -0.000000   0.000000
    17  H    0.000000  -0.000000  -0.000000  -0.000000   0.000000  -0.000000
    18  C    0.052646  -0.005815  -0.009063  -0.064990   0.010734  -0.000171
    19  H   -0.093040   0.001106   0.002042  -0.037064   0.010496   0.000530
    20  H    0.001106  -0.015198   0.003053   0.001602  -0.000186  -0.000006
    21  H    0.002042   0.003053  -0.013758   0.002677  -0.000310   0.000001
    22  O   -0.037064   0.001602   0.002677   0.571541  -0.054587   0.000191
    23  O    0.010496  -0.000186  -0.000310  -0.054587   0.124560  -0.000273
    24  H    0.000530  -0.000006   0.000001   0.000191  -0.000273  -0.003804
 Mulliken charges and spin densities:
               1          2
     1  C   -0.167022   0.155175
     2  C   -0.124403  -0.061092
     3  C    0.085829  -0.102243
     4  H    0.117686  -0.007189
     5  C   -0.138634   0.132919
     6  H    0.124488   0.001924
     7  C    0.057401  -0.038052
     8  H    0.123057  -0.006306
     9  C    0.049160   0.060777
    10  C   -0.123868  -0.026450
    11  C   -0.130071   0.032818
    12  H    0.124758   0.000978
    13  C   -0.141188   0.026457
    14  C   -0.125082  -0.023853
    15  H    0.119873  -0.001214
    16  H    0.124670  -0.001511
    17  H    0.123758   0.000948
    18  C   -0.466251   0.438660
    19  H    0.324228  -0.057696
    20  H    0.141868  -0.015446
    21  H    0.156125  -0.014941
    22  O   -0.309468   0.425073
    23  O   -0.302331   0.083939
    24  H    0.355419  -0.003679
 Sum of Mulliken charges =  -0.00000   1.00000
 Mulliken charges and spin densities with hydrogens summed into heavy atoms:
               1          2
     1  C   -0.049336   0.147986
     2  C    0.000085  -0.059168
     3  C    0.085829  -0.102243
     5  C   -0.015577   0.126614
     7  C    0.057401  -0.038052
     9  C    0.049160   0.060777
    10  C    0.000890  -0.025472
    11  C   -0.005401   0.031307
    13  C   -0.021316   0.025243
    14  C   -0.001324  -0.022905
    18  C   -0.168258   0.408274
    22  O    0.014760   0.367377
    23  O    0.053088   0.080261
 Electronic spatial extent (au):  <R**2>=           2287.5400
 Charge=             -0.0000 electrons
 Dipole moment (field-independent basis, Debye):
    X=             -0.6788    Y=              2.1452    Z=              0.0250  Tot=              2.2502
 Quadrupole moment (field-independent basis, Debye-Ang):
   XX=            -71.0827   YY=            -71.4633   ZZ=            -75.0687
   XY=              7.0034   XZ=             -3.1020   YZ=              5.6812
 Traceless Quadrupole moment (field-independent basis, Debye-Ang):
   XX=              1.4555   YY=              1.0750   ZZ=             -2.5305
   XY=              7.0034   XZ=             -3.1020   YZ=              5.6812
 Octapole moment (field-independent basis, Debye-Ang**2):
  XXX=             -0.8951  YYY=             -1.2436  ZZZ=             19.0153  XYY=             -6.6307
  XXY=             12.0552  XXZ=             10.6794  XZZ=             21.5682  YZZ=             -2.3847
  YYZ=              0.3145  XYZ=              2.8248
 Hexadecapole moment (field-independent basis, Debye-Ang**3):
 XXXX=          -1503.7338 YYYY=          -1039.5150 ZZZZ=           -320.3247 XXXY=             40.0124
 XXXZ=            -12.6357 YYYX=             14.1626 YYYZ=             24.3274 ZZZX=             40.3509
 ZZZY=             -2.4640 XXYY=           -433.6428 XXZZ=           -293.3400 YYZZ=           -256.8361
 XXYZ=             13.1989 YYXZ=            -11.8635 ZZXY=             -9.8481
 N-N= 7.540530980353D+02 E-N=-2.848292317298D+03  KE= 5.709781466739D+02
                          Isotropic Fermi Contact Couplings
        Atom                 a.u.       MegaHertz       Gauss      10(-4) cm-1
     1  C(13)              0.02834      31.85654      11.36721      10.62620
     2  C(13)             -0.01444     -16.23117      -5.79168      -5.41414
     3  C(13)             -0.02551     -28.67999     -10.23373      -9.56662
     4  H(1)              -0.00230     -10.26641      -3.66331      -3.42451
     5  C(13)              0.02217      24.92589       8.89418       8.31438
     6  H(1)               0.00066       2.94054       1.04926       0.98086
     7  C(13)             -0.01022     -11.48786      -4.09915      -3.83194
     8  H(1)              -0.00207      -9.24244      -3.29793      -3.08295
     9  C(13)              0.01201      13.49697       4.81605       4.50210
    10  C(13)             -0.00631      -7.09447      -2.53148      -2.36646
    11  C(13)              0.00595       6.68815       2.38650       2.23093
    12  H(1)               0.00033       1.47112       0.52493       0.49071
    13  C(13)              0.00508       5.70543       2.03584       1.90313
    14  C(13)             -0.00484      -5.43967      -1.94101      -1.81448
    15  H(1)              -0.00041      -1.84972      -0.66003      -0.61700
    16  H(1)              -0.00049      -2.18146      -0.77840      -0.72766
    17  H(1)               0.00031       1.37167       0.48945       0.45754
    18  C(13)              0.12485     140.35709      50.08290      46.81808
    19  H(1)              -0.03072    -137.29773     -48.99124     -45.79759
    20  H(1)              -0.00426     -19.05696      -6.80000      -6.35672
    21  H(1)              -0.00487     -21.76067      -7.76475      -7.25858
    22  O(17)              0.06254     -37.91168     -13.52783     -12.64598
    23  O(17)              0.02110     -12.79031      -4.56390      -4.26639
    24  H(1)              -0.00205      -9.18237      -3.27650      -3.06291
 --------------------------------------------------------
       Center         ----  Spin Dipole Couplings  ----
                      3XX-RR        3YY-RR        3ZZ-RR
 --------------------------------------------------------
     1   Atom       -0.052567     -0.063644      0.116210
     2   Atom        0.017249      0.014546     -0.031795
     3   Atom        0.027769      0.031166     -0.058936
     4   Atom        0.004207      0.000563     -0.004770
     5   Atom       -0.041227     -0.050227      0.091453
     6   Atom        0.002139     -0.000360     -0.001779
     7   Atom        0.010291      0.010943     -0.021234
     8   Atom        0.004263     -0.004610      0.000347
     9   Atom       -0.010342     -0.027000      0.037342
    10   Atom        0.010889      0.007685     -0.018574
    11   Atom       -0.008911     -0.012355      0.021266
    12   Atom        0.002422      0.000700     -0.003122
    13   Atom       -0.006196     -0.010570      0.016766
    14   Atom        0.007836      0.008453     -0.016289
    15   Atom        0.002079     -0.001247     -0.000832
    16   Atom       -0.001030      0.002108     -0.001078
    17   Atom        0.000210      0.000438     -0.000648
    18   Atom       -0.128488     -0.022054      0.150542
    19   Atom       -0.075127     -0.011276      0.086403
    20   Atom        0.010958      0.001357     -0.012315
    21   Atom       -0.026236      0.010689      0.015547
    22   Atom       -0.418619      0.101424      0.317195
    23   Atom       -0.195644      0.026060      0.169584
    24   Atom       -0.015146      0.009242      0.005904
 --------------------------------------------------------
                        XY            XZ            YZ
 --------------------------------------------------------
     1   Atom       -0.012221      0.058804     -0.033564
     2   Atom        0.003660     -0.020384      0.014882
     3   Atom       -0.004349     -0.030822      0.021563
     4   Atom        0.007593      0.000563     -0.002016
     5   Atom       -0.017609      0.050901     -0.042740
     6   Atom       -0.000567     -0.001674      0.000329
     7   Atom        0.001899     -0.010882      0.008147
     8   Atom       -0.008266     -0.004142      0.001885
     9   Atom       -0.006614      0.027830     -0.012780
    10   Atom        0.004659     -0.007993      0.005004
    11   Atom       -0.001412      0.013604     -0.007615
    12   Atom        0.006330      0.003345      0.000629
    13   Atom       -0.002429      0.010265     -0.006883
    14   Atom        0.002135     -0.008560      0.005948
    15   Atom       -0.000770     -0.000973      0.000182
    16   Atom        0.001446      0.001014      0.000597
    17   Atom       -0.000528     -0.000152      0.000505
    18   Atom       -0.149005      0.205917     -0.285786
    19   Atom       -0.050919      0.069219     -0.131761
    20   Atom        0.024914     -0.003133     -0.019735
    21   Atom        0.003068      0.016347      0.020108
    22   Atom       -0.705513      0.771361     -1.124499
    23   Atom       -0.138407      0.219256     -0.328917
    24   Atom        0.004549      0.004607      0.016791
 --------------------------------------------------------


 ---------------------------------------------------------------------------------
              Anisotropic Spin Dipole Couplings in Principal Axis System
 ---------------------------------------------------------------------------------

       Atom             a.u.   MegaHertz   Gauss  10(-4) cm-1        Axes

              Baa    -0.0721    -9.680    -3.454    -3.229  0.8119  0.5634 -0.1531
     1 C(13)  Bbb    -0.0688    -9.228    -3.293    -3.078 -0.5030  0.8081  0.3065
              Bcc     0.1409    18.908     6.747     6.307  0.2964 -0.1719  0.9395
 
              Baa    -0.0432    -5.795    -2.068    -1.933  0.3228 -0.2554  0.9113
     2 C(13)  Bbb     0.0182     2.441     0.871     0.814  0.3070  0.9391  0.1544
              Bcc     0.0250     3.354     1.197     1.119  0.8953 -0.2299 -0.3816
 
              Baa    -0.0724    -9.713    -3.466    -3.240  0.2818 -0.1843  0.9416
     3 C(13)  Bbb     0.0256     3.431     1.224     1.145  0.6714  0.7389 -0.0564
              Bcc     0.0468     6.281     2.241     2.095  0.6854 -0.6481 -0.3319
 
              Baa    -0.0071    -3.773    -1.346    -1.259 -0.4470  0.6158  0.6488
     4 H(1)   Bbb    -0.0032    -1.689    -0.603    -0.563  0.4380 -0.4817  0.7590
              Bcc     0.0102     5.462     1.949     1.822  0.7800  0.6235 -0.0545
 
              Baa    -0.0641    -8.600    -3.069    -2.869  0.5030  0.8613  0.0720
     5 C(13)  Bbb    -0.0571    -7.658    -2.732    -2.554  0.8051 -0.4366 -0.4016
              Bcc     0.1212    16.258     5.801     5.423  0.3144 -0.2600  0.9130
 
              Baa    -0.0024    -1.282    -0.458    -0.428  0.3390 -0.0570  0.9391
     6 H(1)   Bbb    -0.0005    -0.257    -0.092    -0.086  0.2029  0.9791 -0.0139
              Bcc     0.0029     1.540     0.549     0.514  0.9186 -0.1953 -0.3435
 
              Baa    -0.0265    -3.554    -1.268    -1.186  0.2872 -0.2176  0.9328
     7 C(13)  Bbb     0.0125     1.678     0.599     0.560  0.4885  0.8710  0.0528
              Bcc     0.0140     1.877     0.670     0.626  0.8239 -0.4405 -0.3565
 
              Baa    -0.0096    -5.114    -1.825    -1.706  0.5243  0.8496  0.0574
     8 H(1)   Bbb    -0.0015    -0.814    -0.291    -0.272  0.3027 -0.2490  0.9200
              Bcc     0.0111     5.928     2.115     1.977  0.7959 -0.4650 -0.3877
 
              Baa    -0.0297    -3.980    -1.420    -1.328  0.1648  0.9792  0.1183
     9 C(13)  Bbb    -0.0231    -3.097    -1.105    -1.033  0.8958 -0.0984 -0.4334
              Bcc     0.0527     7.077     2.525     2.361  0.4128 -0.1774  0.8934
 
              Baa    -0.0218    -2.930    -1.045    -0.977  0.2594 -0.2011  0.9446
    10 C(13)  Bbb     0.0071     0.956     0.341     0.319 -0.4241  0.8550  0.2985
              Bcc     0.0147     1.974     0.704     0.659  0.8677  0.4780 -0.1365
 
              Baa    -0.0154    -2.062    -0.736    -0.688  0.6571 -0.6513 -0.3794
    11 C(13)  Bbb    -0.0126    -1.686    -0.602    -0.563  0.6694  0.7357 -0.1036
              Bcc     0.0279     3.749     1.338     1.250  0.3466 -0.1859  0.9194
 
              Baa    -0.0061    -3.250    -1.160    -1.084  0.6189 -0.5224 -0.5866
    12 H(1)   Bbb    -0.0026    -1.387    -0.495    -0.463  0.2319 -0.5919  0.7719
              Bcc     0.0087     4.637     1.655     1.547  0.7505  0.6137  0.2452
 
              Baa    -0.0122    -1.638    -0.584    -0.546 -0.0039  0.9726  0.2325
    13 C(13)  Bbb    -0.0101    -1.355    -0.484    -0.452  0.9378  0.0843 -0.3367
              Bcc     0.0223     2.993     1.068     0.998  0.3471 -0.2167  0.9124
 
              Baa    -0.0204    -2.738    -0.977    -0.913  0.2982 -0.2138  0.9303
    14 C(13)  Bbb     0.0098     1.311     0.468     0.437 -0.1950  0.9404  0.2787
              Bcc     0.0106     1.426     0.509     0.476  0.9344  0.2645 -0.2387
 
              Baa    -0.0014    -0.758    -0.270    -0.253  0.2398  0.9659  0.0980
    15 H(1)   Bbb    -0.0011    -0.597    -0.213    -0.199  0.2521 -0.1594  0.9545
              Bcc     0.0025     1.355     0.483     0.452  0.9375 -0.2042 -0.2818
 
              Baa    -0.0022    -1.159    -0.413    -0.386  0.7675 -0.1732 -0.6172
    16 H(1)   Bbb    -0.0007    -0.386    -0.138    -0.129  0.5098 -0.4188  0.7515
              Bcc     0.0029     1.544     0.551     0.515  0.3886  0.8914  0.2332
 
              Baa    -0.0008    -0.453    -0.162    -0.151 -0.0599 -0.3856  0.9207
    17 H(1)   Bbb    -0.0002    -0.086    -0.031    -0.029  0.8233  0.5025  0.2640
              Bcc     0.0010     0.539     0.192     0.180 -0.5644  0.7739  0.2873
 
              Baa    -0.2384   -31.986   -11.413   -10.669  0.7510 -0.2754 -0.6001
    18 C(13)  Bbb    -0.2322   -31.164   -11.120   -10.395  0.5324  0.7902  0.3036
              Bcc     0.4706    63.150    22.533    21.065  0.3906 -0.5475  0.7401
 
              Baa    -0.1045   -55.765   -19.898   -18.601  0.5595  0.7630  0.3237
    19 H(1)   Bbb    -0.1000   -53.334   -19.031   -17.790  0.7751 -0.3432 -0.5305
              Bcc     0.2045   109.099    38.929    36.392  0.2937 -0.5477  0.7834
 
              Baa    -0.0309   -16.481    -5.881    -5.497 -0.3504  0.6708  0.6536
    20 H(1)   Bbb    -0.0056    -2.967    -1.059    -0.990  0.6403 -0.3378  0.6899
              Bcc     0.0364    19.448     6.939     6.487  0.6836  0.6603 -0.3111
 
              Baa    -0.0322   -17.206    -6.139    -5.739  0.9272  0.1024 -0.3602
    21 H(1)   Bbb    -0.0044    -2.373    -0.847    -0.791 -0.2982  0.7839 -0.5446
              Bcc     0.0367    19.579     6.986     6.531  0.2266  0.6124  0.7574
 
              Baa    -0.9210    66.641    23.779    22.229  0.1779  0.7811  0.5986
    22 O(17)  Bbb    -0.9049    65.475    23.363    21.840  0.8889  0.1334 -0.4383
              Bcc     1.8258  -132.116   -47.142   -44.069  0.4222 -0.6100  0.6706
 
              Baa    -0.3003    21.730     7.754     7.248  0.8585 -0.1346 -0.4948
    23 O(17)  Bbb    -0.2262    16.367     5.840     5.459  0.3870  0.8031  0.4531
              Bcc     0.5265   -38.097   -13.594   -12.708  0.3364 -0.5804  0.7416
 
              Baa    -0.0162    -8.640    -3.083    -2.882  0.9863 -0.0816 -0.1436
    24 H(1)   Bbb    -0.0093    -4.953    -1.767    -1.652  0.0508 -0.6775  0.7337
              Bcc     0.0255    13.593     4.850     4.534  0.1572  0.7309  0.6641
 

 ---------------------------------------------------------------------------------



 THERE IS SOMETHING FASCINATING ABOUT SCIENCE.
 ONE GETS SUCH WHOLESALE CONJECTURE OUT OF SUCH TRIFLING INVESTMENTS.

                                                       -- MARK TWAIN
 Error termination request processed by link 9999.
 Error termination via Lnk1e in /shared/centos7/gaussian/g16/l9999.exe at Tue Mar 19 10:49:06 2019.
 Job cpu time:       0 days 15 hours 22 minutes 54.8 seconds.
 Elapsed time:       0 days  0 hours 47 minutes 25.5 seconds.
 File lengths (MBytes):  RWF=   1440 Int=      0 D2E=      0 Chk=     32 Scr=     32
