 Entering Gaussian System, Link 0=g16
 Input=rxn902fix.com
 Output=rxn902fix.log
 Initial command:
 /shared/centos7/gaussian/g16/l1.exe "/scratch/dinius.ab/QMscratch/Gau-49045.inp" -scrdir="/scratch/dinius.ab/QMscratch/"
 Default is to use a total of  20 processors:
                               20 via shared-memory
                                1 via Linda
 Entering Link 1 = /shared/centos7/gaussian/g16/l1.exe PID=     49046.
  
 Copyright (c) 1988,1990,1992,1993,1995,1998,2003,2009,2016,
            Gaussian, Inc.  All Rights Reserved.
  
 This is part of the Gaussian(R) 16 program.  It is based on
 the Gaussian(R) 09 system (copyright 2009, Gaussian, Inc.),
 the Gaussian(R) 03 system (copyright 2003, Gaussian, Inc.),
 the Gaussian(R) 98 system (copyright 1998, Gaussian, Inc.),
 the Gaussian(R) 94 system (copyright 1995, Gaussian, Inc.),
 the Gaussian 92(TM) system (copyright 1992, Gaussian, Inc.),
 the Gaussian 90(TM) system (copyright 1990, Gaussian, Inc.),
 the Gaussian 88(TM) system (copyright 1988, Gaussian, Inc.),
 the Gaussian 86(TM) system (copyright 1986, Carnegie Mellon
 University), and the Gaussian 82(TM) system (copyright 1983,
 Carnegie Mellon University). Gaussian is a federally registered
 trademark of Gaussian, Inc.
  
 This software contains proprietary and confidential information,
 including trade secrets, belonging to Gaussian, Inc.
  
 This software is provided under written license and may be
 used, copied, transmitted, or stored only in accord with that
 written license.
  
 The following legend is applicable only to US Government
 contracts under FAR:
  
                    RESTRICTED RIGHTS LEGEND
  
 Use, reproduction and disclosure by the US Government is
 subject to restrictions as set forth in subparagraphs (a)
 and (c) of the Commercial Computer Software - Restricted
 Rights clause in FAR 52.227-19.
  
 Gaussian, Inc.
 340 Quinnipiac St., Bldg. 40, Wallingford CT 06492
  
  
 ---------------------------------------------------------------
 Warning -- This program may not be used in any manner that
 competes with the business of Gaussian, Inc. or will provide
 assistance to any competitor of Gaussian, Inc.  The licensee
 of this program is prohibited from giving any competitor of
 Gaussian, Inc. access to this program.  By using this program,
 the user acknowledges that Gaussian, Inc. is engaged in the
 business of creating and licensing software in the field of
 computational chemistry and represents and warrants to the
 licensee that it is not a competitor of Gaussian, Inc. and that
 it will not use this program in any manner prohibited above.
 ---------------------------------------------------------------
  

 Cite this work as:
 Gaussian 16, Revision A.03,
 M. J. Frisch, G. W. Trucks, H. B. Schlegel, G. E. Scuseria, 
 M. A. Robb, J. R. Cheeseman, G. Scalmani, V. Barone, 
 G. A. Petersson, H. Nakatsuji, X. Li, M. Caricato, A. V. Marenich, 
 J. Bloino, B. G. Janesko, R. Gomperts, B. Mennucci, H. P. Hratchian, 
 J. V. Ortiz, A. F. Izmaylov, J. L. Sonnenberg, D. Williams-Young, 
 F. Ding, F. Lipparini, F. Egidi, J. Goings, B. Peng, A. Petrone, 
 T. Henderson, D. Ranasinghe, V. G. Zakrzewski, J. Gao, N. Rega, 
 G. Zheng, W. Liang, M. Hada, M. Ehara, K. Toyota, R. Fukuda, 
 J. Hasegawa, M. Ishida, T. Nakajima, Y. Honda, O. Kitao, H. Nakai, 
 T. Vreven, K. Throssell, J. A. Montgomery, Jr., J. E. Peralta, 
 F. Ogliaro, M. J. Bearpark, J. J. Heyd, E. N. Brothers, K. N. Kudin, 
 V. N. Staroverov, T. A. Keith, R. Kobayashi, J. Normand, 
 K. Raghavachari, A. P. Rendell, J. C. Burant, S. S. Iyengar, 
 J. Tomasi, M. Cossi, J. M. Millam, M. Klene, C. Adamo, R. Cammi, 
 J. W. Ochterski, R. L. Martin, K. Morokuma, O. Farkas, 
 J. B. Foresman, and D. J. Fox, Gaussian, Inc., Wallingford CT, 2016.
 
 ******************************************
 Gaussian 16:  EM64L-G16RevA.03 25-Dec-2016
                 5-Feb-2019 
 ******************************************
 ----------------------------------------------------------------------
 #m062x/6-311+g(2df,2p) Opt=(ModRedun,Loose,maxcycle=1000) Int(Grid=SG1
 ) freq
 ----------------------------------------------------------------------
 1/6=1000,7=-1,18=120,19=15,26=2,38=1/1,3;
 2/9=110,12=2,17=6,18=5,40=1/2;
 3/5=4,6=6,7=214,11=2,25=1,30=1,71=1,74=-55,75=1/1,2,3;
 4//1;
 5/5=2,38=5/2;
 6/7=2,8=2,9=2,10=2,28=1/1;
 7//1,2,3,16;
 1/6=1000,7=-1,18=20,19=15,26=2/3(2);
 2/9=110/2;
 99//99;
 2/9=110/2;
 3/5=4,6=6,7=214,11=2,25=1,30=1,71=1,74=-55,75=1/1,2,3;
 4/5=5,16=3,69=1/1;
 5/5=2,38=5/2;
 7//1,2,3,16;
 1/6=1000,7=-1,18=20,19=15,26=2/3(-5);
 2/9=110/2;
 6/7=2,8=2,9=2,10=2,19=2,28=1/1;
 99/9=1/99;
 -----
 Title
 -----
 Symbolic Z-matrix:
 Charge =  0 Multiplicity = 2
 C                     2.85867  -1.66826   0.07659 
 C                     3.62997  -0.49529   0.09397 
 C                     3.01938   0.734     0.05579 
 C                     1.61442   0.82885  -0.00189 
 C                     1.48439  -1.60208   0.02042 
 C                     0.84665  -0.35719  -0.01908 
 H                     0.87567  -2.49345   0.00528 
 H                     3.34925  -2.63083   0.10365 
 H                     4.70831  -0.56207   0.13441 
 H                     3.60555   1.64263   0.06727 
 C                    -0.59336  -0.24216  -0.08212 
 C                     0.95254   2.08667  -0.0441 
 C                    -0.42641   2.17803  -0.10038 
 H                     1.55318   2.98633  -0.02974 
 C                    -1.20689   1.03158  -0.11936 
 H                    -0.89954   3.14889  -0.12508 
 H                    -2.28687   1.07568  -0.14617 
 O                    -1.36814  -1.3784   -0.10805 
 H                    -3.06588  -1.05354  -0.41944 
 O                    -3.99167  -0.73032  -0.53968 
 O                    -4.17101   0.04347   0.63868 
 H                    -4.66921  -0.55641   1.20311 
 
 Add virtual bond connecting atoms H19        and O18        Dist= 3.32D+00.
 The following ModRedundant input section has been read:
 

 GradGradGradGradGradGradGradGradGradGradGradGradGradGradGradGradGradGrad
 Berny optimization.
 Initialization pass.
                           ----------------------------
                           !    Initial Parameters    !
                           ! (Angstroms and Degrees)  !
 --------------------------                            --------------------------
 ! Name  Definition              Value          Derivative Info.                !
 --------------------------------------------------------------------------------
 ! R1    R(1,2)                  1.4039         estimate D2E/DX2                !
 ! R2    R(1,5)                  1.377          estimate D2E/DX2                !
 ! R3    R(1,8)                  1.0807         estimate D2E/DX2                !
 ! R4    R(2,3)                  1.3731         estimate D2E/DX2                !
 ! R5    R(2,9)                  1.0812         estimate D2E/DX2                !
 ! R6    R(3,4)                  1.4093         estimate D2E/DX2                !
 ! R7    R(3,10)                 1.0814         estimate D2E/DX2                !
 ! R8    R(4,6)                  1.413          estimate D2E/DX2                !
 ! R9    R(4,12)                 1.422          estimate D2E/DX2                !
 ! R10   R(5,6)                  1.3993         estimate D2E/DX2                !
 ! R11   R(5,7)                  1.0795         estimate D2E/DX2                !
 ! R12   R(6,11)                 1.446          estimate D2E/DX2                !
 ! R13   R(11,15)                1.4143         estimate D2E/DX2                !
 ! R14   R(11,18)                1.3755         estimate D2E/DX2                !
 ! R15   R(12,13)                1.3831         estimate D2E/DX2                !
 ! R16   R(12,14)                1.0818         estimate D2E/DX2                !
 ! R17   R(13,15)                1.387          estimate D2E/DX2                !
 ! R18   R(13,16)                1.0803         estimate D2E/DX2                !
 ! R19   R(15,17)                1.0812         estimate D2E/DX2                !
 ! R20   R(18,19)                1.7564         estimate D2E/DX2                !
 ! R21   R(19,20)                0.9879         estimate D2E/DX2                !
 ! R22   R(20,21)                1.4211         estimate D2E/DX2                !
 ! R23   R(21,22)                0.9626         estimate D2E/DX2                !
 ! A1    A(2,1,5)              120.5732         estimate D2E/DX2                !
 ! A2    A(2,1,8)              119.6335         estimate D2E/DX2                !
 ! A3    A(5,1,8)              119.7929         estimate D2E/DX2                !
 ! A4    A(1,2,3)              120.2207         estimate D2E/DX2                !
 ! A5    A(1,2,9)              119.7888         estimate D2E/DX2                !
 ! A6    A(3,2,9)              119.9903         estimate D2E/DX2                !
 ! A7    A(2,3,4)              120.3104         estimate D2E/DX2                !
 ! A8    A(2,3,10)             120.7249         estimate D2E/DX2                !
 ! A9    A(4,3,10)             118.9645         estimate D2E/DX2                !
 ! A10   A(3,4,6)              119.0579         estimate D2E/DX2                !
 ! A11   A(3,4,12)             121.6528         estimate D2E/DX2                !
 ! A12   A(6,4,12)             119.2893         estimate D2E/DX2                !
 ! A13   A(1,5,6)              119.918          estimate D2E/DX2                !
 ! A14   A(1,5,7)              121.578          estimate D2E/DX2                !
 ! A15   A(6,5,7)              118.5039         estimate D2E/DX2                !
 ! A16   A(4,6,5)              119.9197         estimate D2E/DX2                !
 ! A17   A(4,6,11)             118.3522         estimate D2E/DX2                !
 ! A18   A(5,6,11)             121.7278         estimate D2E/DX2                !
 ! A19   A(6,11,15)            120.3189         estimate D2E/DX2                !
 ! A20   A(6,11,18)            119.7395         estimate D2E/DX2                !
 ! A21   A(15,11,18)           119.9415         estimate D2E/DX2                !
 ! A22   A(4,12,13)            121.581          estimate D2E/DX2                !
 ! A23   A(4,12,14)            118.4757         estimate D2E/DX2                !
 ! A24   A(13,12,14)           119.9432         estimate D2E/DX2                !
 ! A25   A(12,13,15)           120.4617         estimate D2E/DX2                !
 ! A26   A(12,13,16)           119.7976         estimate D2E/DX2                !
 ! A27   A(15,13,16)           119.7401         estimate D2E/DX2                !
 ! A28   A(11,15,13)           119.9963         estimate D2E/DX2                !
 ! A29   A(11,15,17)           118.0797         estimate D2E/DX2                !
 ! A30   A(13,15,17)           121.9165         estimate D2E/DX2                !
 ! A31   A(11,18,19)           113.2675         estimate D2E/DX2                !
 ! A32   A(19,20,21)           101.2732         estimate D2E/DX2                !
 ! A33   A(20,21,22)           102.2508         estimate D2E/DX2                !
 ! A34   L(18,19,20,16,-1)     171.5907         estimate D2E/DX2                !
 ! A35   L(18,19,20,16,-2)     183.0487         estimate D2E/DX2                !
 ! D1    D(5,1,2,3)              0.0387         estimate D2E/DX2                !
 ! D2    D(5,1,2,9)           -179.7677         estimate D2E/DX2                !
 ! D3    D(8,1,2,3)            179.797          estimate D2E/DX2                !
 ! D4    D(8,1,2,9)             -0.0094         estimate D2E/DX2                !
 ! D5    D(2,1,5,6)             -0.0358         estimate D2E/DX2                !
 ! D6    D(2,1,5,7)            179.9364         estimate D2E/DX2                !
 ! D7    D(8,1,5,6)           -179.7937         estimate D2E/DX2                !
 ! D8    D(8,1,5,7)              0.1785         estimate D2E/DX2                !
 ! D9    D(1,2,3,4)             -0.0361         estimate D2E/DX2                !
 ! D10   D(1,2,3,10)          -179.9055         estimate D2E/DX2                !
 ! D11   D(9,2,3,4)            179.7699         estimate D2E/DX2                !
 ! D12   D(9,2,3,10)            -0.0996         estimate D2E/DX2                !
 ! D13   D(2,3,4,6)              0.031          estimate D2E/DX2                !
 ! D14   D(2,3,4,12)          -179.9221         estimate D2E/DX2                !
 ! D15   D(10,3,4,6)           179.9027         estimate D2E/DX2                !
 ! D16   D(10,3,4,12)           -0.0503         estimate D2E/DX2                !
 ! D17   D(3,4,6,5)             -0.0281         estimate D2E/DX2                !
 ! D18   D(3,4,6,11)          -179.8329         estimate D2E/DX2                !
 ! D19   D(12,4,6,5)           179.9261         estimate D2E/DX2                !
 ! D20   D(12,4,6,11)            0.1213         estimate D2E/DX2                !
 ! D21   D(3,4,12,13)         -179.9849         estimate D2E/DX2                !
 ! D22   D(3,4,12,14)           -0.0816         estimate D2E/DX2                !
 ! D23   D(6,4,12,13)            0.0621         estimate D2E/DX2                !
 ! D24   D(6,4,12,14)          179.9655         estimate D2E/DX2                !
 ! D25   D(1,5,6,4)              0.0308         estimate D2E/DX2                !
 ! D26   D(1,5,6,11)           179.8288         estimate D2E/DX2                !
 ! D27   D(7,5,6,4)           -179.9422         estimate D2E/DX2                !
 ! D28   D(7,5,6,11)            -0.1442         estimate D2E/DX2                !
 ! D29   D(4,6,11,15)           -0.2692         estimate D2E/DX2                !
 ! D30   D(4,6,11,18)          179.6269         estimate D2E/DX2                !
 ! D31   D(5,6,11,15)          179.9297         estimate D2E/DX2                !
 ! D32   D(5,6,11,18)           -0.1742         estimate D2E/DX2                !
 ! D33   D(6,11,15,13)           0.2355         estimate D2E/DX2                !
 ! D34   D(6,11,15,17)        -178.7932         estimate D2E/DX2                !
 ! D35   D(18,11,15,13)       -179.6604         estimate D2E/DX2                !
 ! D36   D(18,11,15,17)          1.311          estimate D2E/DX2                !
 ! D37   D(6,11,18,19)        -171.6046         estimate D2E/DX2                !
 ! D38   D(15,11,18,19)          8.2919         estimate D2E/DX2                !
 ! D39   D(4,12,13,15)          -0.1017         estimate D2E/DX2                !
 ! D40   D(4,12,13,16)         179.611          estimate D2E/DX2                !
 ! D41   D(14,12,13,15)        179.9963         estimate D2E/DX2                !
 ! D42   D(14,12,13,16)         -0.291          estimate D2E/DX2                !
 ! D43   D(12,13,15,11)         -0.0491         estimate D2E/DX2                !
 ! D44   D(12,13,15,17)        178.9412         estimate D2E/DX2                !
 ! D45   D(16,13,15,11)       -179.7619         estimate D2E/DX2                !
 ! D46   D(16,13,15,17)         -0.7716         estimate D2E/DX2                !
 ! D47   D(11,18,20,21)        -62.0959         estimate D2E/DX2                !
 ! D48   D(19,20,21,22)       -100.1119         estimate D2E/DX2                !
 --------------------------------------------------------------------------------
 Trust Radius=3.00D-01 FncErr=1.00D-05 GrdErr=1.00D-04 EigMax=2.50D+02 EigMin=1.00D-04
 Number of steps in this run=    132 maximum allowed number of steps=    132.
 GradGradGradGradGradGradGradGradGradGradGradGradGradGradGradGradGradGrad

                          Input orientation:                          
 ---------------------------------------------------------------------
 Center     Atomic      Atomic             Coordinates (Angstroms)
 Number     Number       Type             X           Y           Z
 ---------------------------------------------------------------------
      1          6           0        2.858670   -1.668260    0.076590
      2          6           0        3.629970   -0.495290    0.093970
      3          6           0        3.019380    0.734000    0.055790
      4          6           0        1.614420    0.828850   -0.001890
      5          6           0        1.484390   -1.602080    0.020420
      6          6           0        0.846650   -0.357190   -0.019080
      7          1           0        0.875670   -2.493450    0.005280
      8          1           0        3.349250   -2.630830    0.103650
      9          1           0        4.708310   -0.562070    0.134410
     10          1           0        3.605550    1.642630    0.067270
     11          6           0       -0.593360   -0.242160   -0.082120
     12          6           0        0.952540    2.086670   -0.044100
     13          6           0       -0.426410    2.178030   -0.100380
     14          1           0        1.553180    2.986330   -0.029740
     15          6           0       -1.206890    1.031580   -0.119360
     16          1           0       -0.899540    3.148890   -0.125080
     17          1           0       -2.286870    1.075680   -0.146170
     18          8           0       -1.368140   -1.378400   -0.108050
     19          1           0       -3.065880   -1.053540   -0.419440
     20          8           0       -3.991670   -0.730320   -0.539680
     21          8           0       -4.171010    0.043470    0.638680
     22          1           0       -4.669210   -0.556410    1.203110
 ---------------------------------------------------------------------
                    Distance matrix (angstroms):
                    1          2          3          4          5
     1  C    0.000000
     2  C    1.403946   0.000000
     3  C    2.407720   1.373110   0.000000
     4  C    2.791035   2.413499   1.409339   0.000000
     5  C    1.377019   2.415348   2.795481   2.434507   0.000000
     6  C    2.403390   2.789036   2.432500   1.412960   1.399294
     7  H    2.149026   3.403921   3.874852   3.403451   1.079495
     8  H    1.080714   2.153933   3.381299   3.871713   2.131421
     9  H    2.155961   1.081162   2.130367   3.394907   3.389436
    10  H    3.394099   2.138226   1.081358   2.152120   3.876810
    11  C    3.738377   4.234572   3.744836   2.455156   2.485345
    12  C    4.212766   3.722125   2.472149   1.421963   3.727453
    13  C    5.061325   4.861957   3.739396   2.448464   4.237332
    14  H    4.835372   4.055865   2.688875   2.158529   4.589200
    15  C    4.884292   5.076619   4.240353   2.831023   3.768115
    16  H    6.113080   5.817602   4.606771   3.423121   5.317519
    17  H    5.835701   6.126550   5.321073   3.911752   4.628234
    18  O    4.240759   5.079547   4.872310   3.711992   2.864169
    19  H    5.976974   6.738668   6.360152   5.061912   4.604273
    20  O    6.941663   7.651545   7.187047   5.843670   5.573232
    21  O    7.256884   7.838511   7.246951   5.873530   5.922299
    22  H    7.692479   8.373190   7.880096   6.546371   6.352871
                    6          7          8          9         10
     6  C    0.000000
     7  H    2.136596   0.000000
     8  H    3.383417   2.479344   0.000000
     9  H    3.870136   4.293720   2.475431   0.000000
    10  H    3.408558   4.956132   4.281293   2.466027   0.000000
    11  C    1.445972   2.689609   4.613505   5.315725   4.604953
    12  C    2.446281   4.581031   5.293473   4.599293   2.692218
    13  C    2.838068   4.850701   6.117383   5.824828   4.070806
    14  H    3.417371   5.521615   5.898826   4.751098   2.455028
    15  C    2.481081   4.096148   5.849905   6.131371   4.854667
    16  H    3.918292   5.916449   7.177026   6.729528   4.754120
    17  H    3.447929   4.771088   6.750294   7.189819   5.923479
    18  O    2.440508   2.508159   4.885403   6.135831   5.821937
    19  H    3.994131   4.217765   6.626867   7.809374   7.212087
    20  O    4.880532   5.205440   7.610185   8.727678   7.982295
    21  O    5.076425   5.683849   7.999528   8.914218   7.959818
    22  H    5.653154   5.994382   8.355102   9.438222   8.636988
                   11         12         13         14         15
    11  C    0.000000
    12  C    2.795479   0.000000
    13  C    2.426010   1.383119   0.000000
    14  H    3.877309   1.081833   2.139419   0.000000
    15  C    1.414291   2.404582   1.387032   3.383351   0.000000
    16  H    3.405116   2.136602   1.080292   2.459949   2.139509
    17  H    2.146807   3.395040   2.163003   4.290702   1.081212
    18  O    1.375499   4.170894   3.679009   5.252724   2.415395
    19  H    2.624019   5.113658   4.184692   6.148832   2.809558
    20  O    3.463549   5.711939   4.621965   6.694691   3.322042
    21  O    3.660699   5.558023   4.373167   6.470978   3.215119
    22  H    4.285221   6.336046   5.213214   7.265608   4.032158
                   16         17         18         19         20
    16  H    0.000000
    17  H    2.494660   0.000000
    18  O    4.551509   2.620692   0.000000
    19  H    4.737098   2.283662   1.756365   0.000000
    20  O    4.978095   2.514524   2.736644   0.987935   0.000000
    21  O    4.574875   2.287232   3.230387   1.882647   1.421072
    22  H    5.450115   3.187447   3.645802   2.334625   1.877930
                   21         22
    21  O    0.000000
    22  H    0.962622   0.000000
 Stoichiometry    C10H9O3(2)
 Framework group  C1[X(C10H9O3)]
 Deg. of freedom    60
 Full point group                 C1      NOp   1
 Largest Abelian subgroup         C1      NOp   1
 Largest concise Abelian subgroup C1      NOp   1
                         Standard orientation:                         
 ---------------------------------------------------------------------
 Center     Atomic      Atomic             Coordinates (Angstroms)
 Number     Number       Type             X           Y           Z
 ---------------------------------------------------------------------
      1          6           0        2.858669   -1.668262    0.076591
      2          6           0        3.629969   -0.495292    0.093971
      3          6           0        3.019380    0.733998    0.055791
      4          6           0        1.614420    0.828848   -0.001889
      5          6           0        1.484389   -1.602082    0.020421
      6          6           0        0.846649   -0.357192   -0.019079
      7          1           0        0.875669   -2.493452    0.005281
      8          1           0        3.349249   -2.630832    0.103651
      9          1           0        4.708309   -0.562073    0.134411
     10          1           0        3.605550    1.642628    0.067271
     11          6           0       -0.593361   -0.242161   -0.082119
     12          6           0        0.952540    2.086668   -0.044099
     13          6           0       -0.426410    2.178029   -0.100379
     14          1           0        1.553180    2.986328   -0.029739
     15          6           0       -1.206890    1.031579   -0.119359
     16          1           0       -0.899540    3.148889   -0.125079
     17          1           0       -2.286870    1.075679   -0.146169
     18          8           0       -1.368141   -1.378401   -0.108049
     19          1           0       -3.065881   -1.053541   -0.419439
     20          8           0       -3.991671   -0.730320   -0.539679
     21          8           0       -4.171011    0.043470    0.638681
     22          1           0       -4.669211   -0.556410    1.203111
 ---------------------------------------------------------------------
 Rotational constants (GHZ):           1.7044519           0.4468959           0.3609837
 Standard basis: 6-311+G(2df,2p) (5D, 7F)
 There are   588 symmetry adapted cartesian basis functions of A   symmetry.
 There are   523 symmetry adapted basis functions of A   symmetry.
   523 basis functions,   775 primitive gaussians,   588 cartesian basis functions
    47 alpha electrons       46 beta electrons
       nuclear repulsion energy       724.9306029485 Hartrees.
 NAtoms=   22 NActive=   22 NUniq=   22 SFac= 1.00D+00 NAtFMM=   60 NAOKFM=F Big=F
 Integral buffers will be    131072 words long.
 Raffenetti 2 integral format.
 Two-electron integral symmetry is turned on.
 One-electron integrals computed using PRISM.
 NBasis=   523 RedAO= T EigKep=  1.52D-06  NBF=   523
 NBsUse=   521 1.00D-06 EigRej=  5.61D-07 NBFU=   521
 ExpMin= 4.38D-02 ExpMax= 8.59D+03 ExpMxC= 1.30D+03 IAcc=2 IRadAn=         4 AccDes= 0.00D+00
 Harris functional with IExCor= 1009 and IRadAn=       4 diagonalized for initial guess.
 HarFok:  IExCor= 1009 AccDes= 0.00D+00 IRadAn=         4 IDoV= 1 UseB2=F ITyADJ=14
 ICtDFT=  3500011 ScaDFX=  1.000000  1.000000  1.000000  1.000000
 FoFCou: FMM=F IPFlag=           0 FMFlag=      100000 FMFlg1=           0
         NFxFlg=           0 DoJE=T BraDBF=F KetDBF=T FulRan=T
         wScrn=  0.000000 ICntrl=       500 IOpCl=  0 I1Cent=   200000004 NGrid=           0
         NMat0=    1 NMatS0=      1 NMatT0=    0 NMatD0=    1 NMtDS0=    0 NMtDT0=    0
 Petite list used in FoFCou.
 Initial guess <Sx>= 0.0000 <Sy>= 0.0000 <Sz>= 0.5000 <S**2>= 0.7500 S= 0.5000
 Requested convergence on RMS density matrix=1.00D-08 within 128 cycles.
 Requested convergence on MAX density matrix=1.00D-06.
 Requested convergence on             energy=1.00D-06.
 No special actions if energy rises.
 Restarting incremental Fock formation.
 SCF Done:  E(UM062X) =  -611.975969968     A.U. after   23 cycles
            NFock= 23  Conv=0.27D-08     -V/T= 2.0040
 <Sx>= 0.0000 <Sy>= 0.0000 <Sz>= 0.5000 <S**2>= 0.7951 S= 0.5223
 <L.S>= 0.000000000000E+00
 Annihilation of the first spin contaminant:
 S**2 before annihilation     0.7951,   after     0.7510

 **********************************************************************

            Population analysis using the SCF density.

 **********************************************************************

 Orbital symmetries:
 Alpha Orbitals:
       Occupied  (A) (A) (A) (A) (A) (A) (A) (A) (A) (A) (A) (A)
                 (A) (A) (A) (A) (A) (A) (A) (A) (A) (A) (A) (A)
                 (A) (A) (A) (A) (A) (A) (A) (A) (A) (A) (A) (A)
                 (A) (A) (A) (A) (A) (A) (A) (A) (A) (A) (A)
       Virtual   (A) (A) (A) (A) (A) (A) (A) (A) (A) (A) (A) (A)
                 (A) (A) (A) (A) (A) (A) (A) (A) (A) (A) (A) (A)
                 (A) (A) (A) (A) (A) (A) (A) (A) (A) (A) (A) (A)
                 (A) (A) (A) (A) (A) (A) (A) (A) (A) (A) (A) (A)
                 (A) (A) (A) (A) (A) (A) (A) (A) (A) (A) (A) (A)
                 (A) (A) (A) (A) (A) (A) (A) (A) (A) (A) (A) (A)
                 (A) (A) (A) (A) (A) (A) (A) (A) (A) (A) (A) (A)
                 (A) (A) (A) (A) (A) (A) (A) (A) (A) (A) (A) (A)
                 (A) (A) (A) (A) (A) (A) (A) (A) (A) (A) (A) (A)
                 (A) (A) (A) (A) (A) (A) (A) (A) (A) (A) (A) (A)
                 (A) (A) (A) (A) (A) (A) (A) (A) (A) (A) (A) (A)
                 (A) (A) (A) (A) (A) (A) (A) (A) (A) (A) (A) (A)
                 (A) (A) (A) (A) (A) (A) (A) (A) (A) (A) (A) (A)
                 (A) (A) (A) (A) (A) (A) (A) (A) (A) (A) (A) (A)
                 (A) (A) (A) (A) (A) (A) (A) (A) (A) (A) (A) (A)
                 (A) (A) (A) (A) (A) (A) (A) (A) (A) (A) (A) (A)
                 (A) (A) (A) (A) (A) (A) (A) (A) (A) (A) (A) (A)
                 (A) (A) (A) (A) (A) (A) (A) (A) (A) (A) (A) (A)
                 (A) (A) (A) (A) (A) (A) (A) (A) (A) (A) (A) (A)
                 (A) (A) (A) (A) (A) (A) (A) (A) (A) (A) (A) (A)
                 (A) (A) (A) (A) (A) (A) (A) (A) (A) (A) (A) (A)
                 (A) (A) (A) (A) (A) (A) (A) (A) (A) (A) (A) (A)
                 (A) (A) (A) (A) (A) (A) (A) (A) (A) (A) (A) (A)
                 (A) (A) (A) (A) (A) (A) (A) (A) (A) (A) (A) (A)
                 (A) (A) (A) (A) (A) (A) (A) (A) (A) (A) (A) (A)
                 (A) (A) (A) (A) (A) (A) (A) (A) (A) (A) (A) (A)
                 (A) (A) (A) (A) (A) (A) (A) (A) (A) (A) (A) (A)
                 (A) (A) (A) (A) (A) (A) (A) (A) (A) (A) (A) (A)
                 (A) (A) (A) (A) (A) (A) (A) (A) (A) (A) (A) (A)
                 (A) (A) (A) (A) (A) (A) (A) (A) (A) (A) (A) (A)
                 (A) (A) (A) (A) (A) (A) (A) (A) (A) (A) (A) (A)
                 (A) (A) (A) (A) (A) (A) (A) (A) (A) (A) (A) (A)
                 (A) (A) (A) (A) (A) (A) (A) (A) (A) (A) (A) (A)
                 (A) (A) (A) (A) (A) (A) (A) (A) (A) (A) (A) (A)
                 (A) (A) (A) (A) (A) (A) (A) (A) (A) (A) (A) (A)
                 (A) (A) (A) (A) (A) (A) (A) (A) (A) (A) (A) (A)
                 (A) (A) (A) (A) (A) (A) (A) (A) (A) (A) (A) (A)
                 (A) (A) (A) (A) (A) (A) (A) (A) (A) (A) (A) (A)
                 (A) (A) (A) (A) (A) (A) (A) (A) (A) (A) (A) (A)
                 (A) (A) (A) (A) (A) (A)
 Beta  Orbitals:
       Occupied  (A) (A) (A) (A) (A) (A) (A) (A) (A) (A) (A) (A)
                 (A) (A) (A) (A) (A) (A) (A) (A) (A) (A) (A) (A)
                 (A) (A) (A) (A) (A) (A) (A) (A) (A) (A) (A) (A)
                 (A) (A) (A) (A) (A) (A) (A) (A) (A) (A)
       Virtual   (A) (A) (A) (A) (A) (A) (A) (A) (A) (A) (A) (A)
                 (A) (A) (A) (A) (A) (A) (A) (A) (A) (A) (A) (A)
                 (A) (A) (A) (A) (A) (A) (A) (A) (A) (A) (A) (A)
                 (A) (A) (A) (A) (A) (A) (A) (A) (A) (A) (A) (A)
                 (A) (A) (A) (A) (A) (A) (A) (A) (A) (A) (A) (A)
                 (A) (A) (A) (A) (A) (A) (A) (A) (A) (A) (A) (A)
                 (A) (A) (A) (A) (A) (A) (A) (A) (A) (A) (A) (A)
                 (A) (A) (A) (A) (A) (A) (A) (A) (A) (A) (A) (A)
                 (A) (A) (A) (A) (A) (A) (A) (A) (A) (A) (A) (A)
                 (A) (A) (A) (A) (A) (A) (A) (A) (A) (A) (A) (A)
                 (A) (A) (A) (A) (A) (A) (A) (A) (A) (A) (A) (A)
                 (A) (A) (A) (A) (A) (A) (A) (A) (A) (A) (A) (A)
                 (A) (A) (A) (A) (A) (A) (A) (A) (A) (A) (A) (A)
                 (A) (A) (A) (A) (A) (A) (A) (A) (A) (A) (A) (A)
                 (A) (A) (A) (A) (A) (A) (A) (A) (A) (A) (A) (A)
                 (A) (A) (A) (A) (A) (A) (A) (A) (A) (A) (A) (A)
                 (A) (A) (A) (A) (A) (A) (A) (A) (A) (A) (A) (A)
                 (A) (A) (A) (A) (A) (A) (A) (A) (A) (A) (A) (A)
                 (A) (A) (A) (A) (A) (A) (A) (A) (A) (A) (A) (A)
                 (A) (A) (A) (A) (A) (A) (A) (A) (A) (A) (A) (A)
                 (A) (A) (A) (A) (A) (A) (A) (A) (A) (A) (A) (A)
                 (A) (A) (A) (A) (A) (A) (A) (A) (A) (A) (A) (A)
                 (A) (A) (A) (A) (A) (A) (A) (A) (A) (A) (A) (A)
                 (A) (A) (A) (A) (A) (A) (A) (A) (A) (A) (A) (A)
                 (A) (A) (A) (A) (A) (A) (A) (A) (A) (A) (A) (A)
                 (A) (A) (A) (A) (A) (A) (A) (A) (A) (A) (A) (A)
                 (A) (A) (A) (A) (A) (A) (A) (A) (A) (A) (A) (A)
                 (A) (A) (A) (A) (A) (A) (A) (A) (A) (A) (A) (A)
                 (A) (A) (A) (A) (A) (A) (A) (A) (A) (A) (A) (A)
                 (A) (A) (A) (A) (A) (A) (A) (A) (A) (A) (A) (A)
                 (A) (A) (A) (A) (A) (A) (A) (A) (A) (A) (A) (A)
                 (A) (A) (A) (A) (A) (A) (A) (A) (A) (A) (A) (A)
                 (A) (A) (A) (A) (A) (A) (A) (A) (A) (A) (A) (A)
                 (A) (A) (A) (A) (A) (A) (A) (A) (A) (A) (A) (A)
                 (A) (A) (A) (A) (A) (A) (A) (A) (A) (A) (A) (A)
                 (A) (A) (A) (A) (A) (A) (A) (A) (A) (A) (A) (A)
                 (A) (A) (A) (A) (A) (A) (A) (A) (A) (A) (A) (A)
                 (A) (A) (A) (A) (A) (A) (A) (A) (A) (A) (A) (A)
                 (A) (A) (A) (A) (A) (A) (A) (A) (A) (A) (A) (A)
                 (A) (A) (A) (A) (A) (A) (A)
 The electronic state is 2-A.
 Alpha  occ. eigenvalues --  -19.66245 -19.64536 -19.63885 -10.63291 -10.59014
 Alpha  occ. eigenvalues --  -10.58000 -10.57709 -10.57627 -10.57296 -10.57159
 Alpha  occ. eigenvalues --  -10.56827 -10.56747 -10.56377  -1.23381  -1.12381
 Alpha  occ. eigenvalues --   -1.00830  -0.98040  -0.95470  -0.88985  -0.87068
 Alpha  occ. eigenvalues --   -0.83348  -0.73865  -0.72715  -0.69214  -0.62162
 Alpha  occ. eigenvalues --   -0.60961  -0.60351  -0.59308  -0.56341  -0.54038
 Alpha  occ. eigenvalues --   -0.53036  -0.51602  -0.51366  -0.51164  -0.49396
 Alpha  occ. eigenvalues --   -0.48686  -0.46725  -0.45880  -0.43241  -0.42156
 Alpha  occ. eigenvalues --   -0.42035  -0.37883  -0.35719  -0.35259  -0.34770
 Alpha  occ. eigenvalues --   -0.33179  -0.28315
 Alpha virt. eigenvalues --   -0.04124  -0.01430   0.00079   0.01133   0.02274
 Alpha virt. eigenvalues --    0.02493   0.03424   0.04017   0.05184   0.05644
 Alpha virt. eigenvalues --    0.06186   0.06342   0.06964   0.07335   0.08339
 Alpha virt. eigenvalues --    0.09604   0.09821   0.09969   0.10876   0.11133
 Alpha virt. eigenvalues --    0.11763   0.12984   0.13894   0.14068   0.14629
 Alpha virt. eigenvalues --    0.15347   0.15583   0.15725   0.16400   0.16753
 Alpha virt. eigenvalues --    0.17666   0.17836   0.18655   0.19029   0.20098
 Alpha virt. eigenvalues --    0.20198   0.20694   0.20880   0.21371   0.21877
 Alpha virt. eigenvalues --    0.22077   0.23023   0.23287   0.23743   0.24063
 Alpha virt. eigenvalues --    0.24562   0.25281   0.25641   0.25902   0.26344
 Alpha virt. eigenvalues --    0.26977   0.27675   0.27880   0.28766   0.29001
 Alpha virt. eigenvalues --    0.30145   0.30697   0.31160   0.31359   0.31948
 Alpha virt. eigenvalues --    0.33071   0.33570   0.33919   0.35313   0.35537
 Alpha virt. eigenvalues --    0.36841   0.37157   0.38666   0.39467   0.40620
 Alpha virt. eigenvalues --    0.43277   0.44562   0.46070   0.47001   0.47676
 Alpha virt. eigenvalues --    0.49601   0.50303   0.51365   0.52134   0.52504
 Alpha virt. eigenvalues --    0.53767   0.54088   0.54597   0.54760   0.56122
 Alpha virt. eigenvalues --    0.56447   0.57380   0.58110   0.58285   0.59351
 Alpha virt. eigenvalues --    0.60169   0.60518   0.61861   0.62977   0.63388
 Alpha virt. eigenvalues --    0.64020   0.64840   0.65740   0.66324   0.66611
 Alpha virt. eigenvalues --    0.67213   0.67440   0.67654   0.68020   0.69470
 Alpha virt. eigenvalues --    0.70239   0.71405   0.71632   0.72065   0.72502
 Alpha virt. eigenvalues --    0.73535   0.74305   0.75024   0.75246   0.75885
 Alpha virt. eigenvalues --    0.76473   0.77479   0.78452   0.79278   0.80104
 Alpha virt. eigenvalues --    0.81657   0.83530   0.84339   0.84500   0.84963
 Alpha virt. eigenvalues --    0.86115   0.87075   0.87612   0.88198   0.89153
 Alpha virt. eigenvalues --    0.89684   0.92708   0.95323   0.95741   0.97378
 Alpha virt. eigenvalues --    0.98016   1.00666   1.00913   1.01936   1.02705
 Alpha virt. eigenvalues --    1.03070   1.04871   1.06563   1.07161   1.07550
 Alpha virt. eigenvalues --    1.08849   1.10152   1.10891   1.11687   1.13467
 Alpha virt. eigenvalues --    1.14381   1.15779   1.16314   1.17349   1.18204
 Alpha virt. eigenvalues --    1.18513   1.19951   1.20549   1.21898   1.21944
 Alpha virt. eigenvalues --    1.22658   1.25667   1.25940   1.27574   1.28710
 Alpha virt. eigenvalues --    1.29864   1.30386   1.31926   1.32476   1.33090
 Alpha virt. eigenvalues --    1.34214   1.34689   1.35160   1.36423   1.36911
 Alpha virt. eigenvalues --    1.37276   1.38066   1.38790   1.39904   1.41639
 Alpha virt. eigenvalues --    1.43154   1.43171   1.44782   1.46717   1.46959
 Alpha virt. eigenvalues --    1.48317   1.49172   1.49991   1.50837   1.55729
 Alpha virt. eigenvalues --    1.57518   1.59745   1.61984   1.63488   1.65066
 Alpha virt. eigenvalues --    1.66428   1.67202   1.68313   1.69479   1.71400
 Alpha virt. eigenvalues --    1.71900   1.73708   1.74594   1.75049   1.76631
 Alpha virt. eigenvalues --    1.81433   1.83393   1.85675   1.87526   1.90469
 Alpha virt. eigenvalues --    1.91273   1.93057   1.94627   1.98605   2.00051
 Alpha virt. eigenvalues --    2.01356   2.03520   2.05452   2.07414   2.11713
 Alpha virt. eigenvalues --    2.17843   2.23219   2.23858   2.32120   2.34826
 Alpha virt. eigenvalues --    2.40400   2.43085   2.44485   2.50546   2.50804
 Alpha virt. eigenvalues --    2.52460   2.54386   2.57209   2.59414   2.61670
 Alpha virt. eigenvalues --    2.62416   2.63501   2.64506   2.66805   2.67771
 Alpha virt. eigenvalues --    2.71816   2.71958   2.73487   2.73831   2.74128
 Alpha virt. eigenvalues --    2.75002   2.75306   2.76957   2.77771   2.78329
 Alpha virt. eigenvalues --    2.80030   2.80473   2.80696   2.81219   2.82822
 Alpha virt. eigenvalues --    2.82987   2.83841   2.84077   2.84933   2.85842
 Alpha virt. eigenvalues --    2.85887   2.88078   2.88841   2.89534   2.90616
 Alpha virt. eigenvalues --    2.90683   2.94236   2.95845   2.97193   2.98060
 Alpha virt. eigenvalues --    2.98689   3.01208   3.03532   3.05982   3.06827
 Alpha virt. eigenvalues --    3.09019   3.10146   3.10649   3.10839   3.11747
 Alpha virt. eigenvalues --    3.12736   3.14395   3.14605   3.15050   3.15641
 Alpha virt. eigenvalues --    3.16630   3.19070   3.19481   3.20329   3.20877
 Alpha virt. eigenvalues --    3.21423   3.25080   3.25608   3.26928   3.27903
 Alpha virt. eigenvalues --    3.28600   3.29822   3.31903   3.32010   3.33357
 Alpha virt. eigenvalues --    3.34004   3.36616   3.38293   3.39051   3.40652
 Alpha virt. eigenvalues --    3.40838   3.41050   3.43023   3.43207   3.46247
 Alpha virt. eigenvalues --    3.46572   3.46911   3.48505   3.50837   3.52484
 Alpha virt. eigenvalues --    3.52992   3.54164   3.54921   3.60308   3.61729
 Alpha virt. eigenvalues --    3.62763   3.63430   3.64643   3.67619   3.68997
 Alpha virt. eigenvalues --    3.69280   3.70972   3.72347   3.72417   3.73088
 Alpha virt. eigenvalues --    3.74883   3.75169   3.75921   3.77036   3.77600
 Alpha virt. eigenvalues --    3.78505   3.80251   3.81781   3.82975   3.85074
 Alpha virt. eigenvalues --    3.85573   3.86575   3.89655   3.91642   3.93238
 Alpha virt. eigenvalues --    3.95818   3.96677   3.99346   4.02066   4.04797
 Alpha virt. eigenvalues --    4.05619   4.06736   4.08381   4.12646   4.14015
 Alpha virt. eigenvalues --    4.16303   4.17105   4.18145   4.18903   4.20975
 Alpha virt. eigenvalues --    4.21513   4.23060   4.27244   4.30154   4.30486
 Alpha virt. eigenvalues --    4.32175   4.33838   4.34303   4.35336   4.35730
 Alpha virt. eigenvalues --    4.36364   4.37827   4.38785   4.40593   4.40648
 Alpha virt. eigenvalues --    4.43448   4.45651   4.46479   4.47828   4.49019
 Alpha virt. eigenvalues --    4.50605   4.53664   4.53965   4.55387   4.57435
 Alpha virt. eigenvalues --    4.58909   4.61533   4.65392   4.66443   4.68498
 Alpha virt. eigenvalues --    4.70255   4.72400   4.73850   4.77792   4.81045
 Alpha virt. eigenvalues --    4.86881   4.88281   4.89534   4.93053   4.94643
 Alpha virt. eigenvalues --    4.98426   5.03308   5.05368   5.09664   5.10880
 Alpha virt. eigenvalues --    5.12635   5.15568   5.16263   5.17432   5.18553
 Alpha virt. eigenvalues --    5.19818   5.22981   5.26093   5.27902   5.28550
 Alpha virt. eigenvalues --    5.31161   5.32137   5.38970   5.40288   5.41301
 Alpha virt. eigenvalues --    5.44330   5.45943   5.51716   5.52976   5.55962
 Alpha virt. eigenvalues --    5.56581   5.59167   5.68914   5.70832   5.71579
 Alpha virt. eigenvalues --    5.72969   5.76152   5.77743   5.80482   5.82953
 Alpha virt. eigenvalues --    6.00913   6.01639   6.04011   6.09584   6.23489
 Alpha virt. eigenvalues --    6.41571   6.61936   6.73942   6.78038   6.80598
 Alpha virt. eigenvalues --    6.88922   6.91225   6.92659   6.99359   7.04861
 Alpha virt. eigenvalues --    7.14150   7.15595   7.16920   7.28254   7.30162
 Alpha virt. eigenvalues --    7.42073   7.46854   7.55395   7.68147   7.75718
 Alpha virt. eigenvalues --    7.97791  23.88702  24.18352  24.55177  24.58724
 Alpha virt. eigenvalues --   24.60239  24.65253  24.75586  24.79310  25.05905
 Alpha virt. eigenvalues --   25.20579  50.01115  50.06581  50.20781
  Beta  occ. eigenvalues --  -19.66244 -19.64541 -19.63023 -10.63351 -10.58805
  Beta  occ. eigenvalues --  -10.58060 -10.57578 -10.57533 -10.57382 -10.57110
  Beta  occ. eigenvalues --  -10.56817 -10.56736 -10.56398  -1.23383  -1.09963
  Beta  occ. eigenvalues --   -1.00435  -0.98040  -0.95047  -0.88538  -0.86911
  Beta  occ. eigenvalues --   -0.82470  -0.73686  -0.72464  -0.68862  -0.61808
  Beta  occ. eigenvalues --   -0.60688  -0.60205  -0.59140  -0.56228  -0.53888
  Beta  occ. eigenvalues --   -0.52720  -0.51414  -0.50427  -0.49681  -0.49272
  Beta  occ. eigenvalues --   -0.48496  -0.46347  -0.42993  -0.42821  -0.41818
  Beta  occ. eigenvalues --   -0.38822  -0.37330  -0.35318  -0.34133  -0.32660
  Beta  occ. eigenvalues --   -0.31974
  Beta virt. eigenvalues --   -0.12850  -0.02630  -0.00343   0.00071   0.01147
  Beta virt. eigenvalues --    0.02273   0.03272   0.03447   0.04036   0.05232
  Beta virt. eigenvalues --    0.05596   0.06302   0.06423   0.07127   0.07446
  Beta virt. eigenvalues --    0.08529   0.09568   0.09880   0.09988   0.10748
  Beta virt. eigenvalues --    0.11193   0.11965   0.13174   0.13894   0.14209
  Beta virt. eigenvalues --    0.14640   0.15290   0.15534   0.15691   0.16386
  Beta virt. eigenvalues --    0.16881   0.17599   0.17958   0.18661   0.19127
  Beta virt. eigenvalues --    0.20009   0.20301   0.20630   0.20858   0.21345
  Beta virt. eigenvalues --    0.21913   0.22145   0.23073   0.23333   0.24000
  Beta virt. eigenvalues --    0.24365   0.24512   0.25321   0.25622   0.25944
  Beta virt. eigenvalues --    0.26366   0.26945   0.27847   0.27979   0.28826
  Beta virt. eigenvalues --    0.29178   0.30102   0.30555   0.31275   0.31408
  Beta virt. eigenvalues --    0.32042   0.33228   0.33807   0.34144   0.35527
  Beta virt. eigenvalues --    0.35703   0.36871   0.37268   0.38673   0.39510
  Beta virt. eigenvalues --    0.40739   0.43351   0.44853   0.46269   0.47022
  Beta virt. eigenvalues --    0.48000   0.49765   0.50615   0.51500   0.52341
  Beta virt. eigenvalues --    0.52784   0.54086   0.54265   0.54673   0.54824
  Beta virt. eigenvalues --    0.56258   0.56584   0.57516   0.58209   0.58403
  Beta virt. eigenvalues --    0.59544   0.60471   0.60787   0.62081   0.63244
  Beta virt. eigenvalues --    0.63445   0.64169   0.64880   0.65805   0.66439
  Beta virt. eigenvalues --    0.66755   0.67267   0.67536   0.67712   0.68105
  Beta virt. eigenvalues --    0.69496   0.70328   0.71511   0.71706   0.72387
  Beta virt. eigenvalues --    0.72592   0.73662   0.74362   0.75115   0.75325
  Beta virt. eigenvalues --    0.76043   0.76669   0.77714   0.78430   0.79338
  Beta virt. eigenvalues --    0.80222   0.81804   0.83596   0.84393   0.84709
  Beta virt. eigenvalues --    0.85079   0.86164   0.87137   0.87867   0.88312
  Beta virt. eigenvalues --    0.89139   0.89553   0.92682   0.95265   0.95775
  Beta virt. eigenvalues --    0.97381   0.98030   1.00654   1.01000   1.01930
  Beta virt. eigenvalues --    1.02706   1.03008   1.04807   1.06470   1.07177
  Beta virt. eigenvalues --    1.07550   1.08714   1.10145   1.10914   1.11634
  Beta virt. eigenvalues --    1.13432   1.14507   1.15835   1.16138   1.17579
  Beta virt. eigenvalues --    1.18215   1.18536   1.19959   1.20984   1.22097
  Beta virt. eigenvalues --    1.22689   1.23494   1.25724   1.26034   1.27721
  Beta virt. eigenvalues --    1.29174   1.29939   1.30540   1.32172   1.32636
  Beta virt. eigenvalues --    1.33248   1.34391   1.34910   1.35360   1.36507
  Beta virt. eigenvalues --    1.37031   1.37462   1.38137   1.38932   1.40136
  Beta virt. eigenvalues --    1.41771   1.43214   1.43429   1.44980   1.46843
  Beta virt. eigenvalues --    1.47109   1.48567   1.49231   1.50162   1.51095
  Beta virt. eigenvalues --    1.55925   1.57796   1.59782   1.62154   1.63668
  Beta virt. eigenvalues --    1.65340   1.66859   1.67590   1.68616   1.69845
  Beta virt. eigenvalues --    1.71601   1.72118   1.74090   1.74850   1.75249
  Beta virt. eigenvalues --    1.77108   1.82070   1.83725   1.85854   1.88167
  Beta virt. eigenvalues --    1.90855   1.91395   1.93630   1.94826   1.98936
  Beta virt. eigenvalues --    2.00379   2.01491   2.03738   2.06164   2.07819
  Beta virt. eigenvalues --    2.11916   2.17980   2.23325   2.24236   2.32279
  Beta virt. eigenvalues --    2.35110   2.40699   2.43545   2.45716   2.50885
  Beta virt. eigenvalues --    2.51741   2.52557   2.54729   2.57475   2.60631
  Beta virt. eigenvalues --    2.61930   2.62959   2.63750   2.65839   2.67394
  Beta virt. eigenvalues --    2.67943   2.72196   2.73279   2.74049   2.74197
  Beta virt. eigenvalues --    2.74504   2.75286   2.75610   2.77211   2.78171
  Beta virt. eigenvalues --    2.79623   2.80598   2.80994   2.81432   2.81755
  Beta virt. eigenvalues --    2.83015   2.84298   2.84595   2.84877   2.85314
  Beta virt. eigenvalues --    2.86505   2.86867   2.88756   2.89601   2.90328
  Beta virt. eigenvalues --    2.91056   2.92225   2.94669   2.96259   2.97413
  Beta virt. eigenvalues --    2.98795   2.99218   3.02095   3.04014   3.06390
  Beta virt. eigenvalues --    3.07232   3.10072   3.10643   3.11256   3.11830
  Beta virt. eigenvalues --    3.12257   3.13441   3.14756   3.15211   3.15580
  Beta virt. eigenvalues --    3.16620   3.17237   3.19661   3.19970   3.20723
  Beta virt. eigenvalues --    3.21511   3.21860   3.25671   3.26542   3.27454
  Beta virt. eigenvalues --    3.28744   3.28972   3.30613   3.32334   3.32394
  Beta virt. eigenvalues --    3.33756   3.34801   3.37275   3.38903   3.39426
  Beta virt. eigenvalues --    3.41170   3.41439   3.41686   3.43892   3.44001
  Beta virt. eigenvalues --    3.47006   3.47268   3.47469   3.49105   3.51437
  Beta virt. eigenvalues --    3.53042   3.53761   3.54755   3.55534   3.60795
  Beta virt. eigenvalues --    3.62393   3.63775   3.64231   3.65031   3.68004
  Beta virt. eigenvalues --    3.69393   3.70470   3.71398   3.72777   3.72849
  Beta virt. eigenvalues --    3.73859   3.75318   3.75651   3.76447   3.77601
  Beta virt. eigenvalues --    3.77893   3.79332   3.80543   3.82151   3.83280
  Beta virt. eigenvalues --    3.85732   3.86217   3.87150   3.90614   3.92630
  Beta virt. eigenvalues --    3.93564   3.96221   3.96943   3.99816   4.02380
  Beta virt. eigenvalues --    4.05141   4.05833   4.06914   4.08989   4.13024
  Beta virt. eigenvalues --    4.14339   4.16910   4.17598   4.18324   4.19720
  Beta virt. eigenvalues --    4.21841   4.22521   4.24289   4.27839   4.30584
  Beta virt. eigenvalues --    4.31185   4.33879   4.34706   4.35442   4.35992
  Beta virt. eigenvalues --    4.36467   4.36816   4.38577   4.39729   4.41027
  Beta virt. eigenvalues --    4.41078   4.44138   4.46717   4.47436   4.48494
  Beta virt. eigenvalues --    4.50168   4.51539   4.54564   4.55477   4.55912
  Beta virt. eigenvalues --    4.58369   4.59117   4.62057   4.65488   4.66783
  Beta virt. eigenvalues --    4.69480   4.70504   4.72865   4.74709   4.78490
  Beta virt. eigenvalues --    4.81064   4.88374   4.89307   4.90736   4.93770
  Beta virt. eigenvalues --    4.94666   4.99830   5.04179   5.06271   5.10712
  Beta virt. eigenvalues --    5.12881   5.13591   5.16540   5.17010   5.18649
  Beta virt. eigenvalues --    5.19682   5.22120   5.23694   5.26219   5.28704
  Beta virt. eigenvalues --    5.29084   5.31736   5.33675   5.39257   5.40894
  Beta virt. eigenvalues --    5.41517   5.45120   5.46914   5.51951   5.53922
  Beta virt. eigenvalues --    5.56076   5.57551   5.59800   5.69990   5.71049
  Beta virt. eigenvalues --    5.71932   5.73967   5.77279   5.78621   5.82700
  Beta virt. eigenvalues --    5.83923   6.01442   6.01667   6.04164   6.09985
  Beta virt. eigenvalues --    6.24645   6.42188   6.62644   6.73974   6.79515
  Beta virt. eigenvalues --    6.84555   6.89249   6.92224   6.94678   7.00473
  Beta virt. eigenvalues --    7.06151   7.15483   7.20128   7.21788   7.28329
  Beta virt. eigenvalues --    7.30368   7.42844   7.46865   7.56261   7.70555
  Beta virt. eigenvalues --    7.75762   7.97798  23.88830  24.18567  24.55238
  Beta virt. eigenvalues --   24.59445  24.60423  24.65424  24.75719  24.79514
  Beta virt. eigenvalues --   25.06383  25.20764  50.01116  50.06582  50.19924
          Condensed to atoms (all electrons):
               1          2          3          4          5          6
     1  C    6.400962   0.582743  -0.342552  -0.015157   0.363169  -0.131578
     2  C    0.582743   6.521843  -0.356363   1.054852  -0.820621   0.252526
     3  C   -0.342552  -0.356363  10.290262  -5.502611   0.648931  -1.241396
     4  C   -0.015157   1.054852  -5.502611  20.059547  -1.581613  -5.741893
     5  C    0.363169  -0.820621   0.648931  -1.581613   7.970928   0.520543
     6  C   -0.131578   0.252526  -1.241396  -5.741893   0.520543  22.903500
     7  H   -0.036463  -0.008379  -0.003248  -0.028086   0.396644  -0.041185
     8  H    0.386091   0.018009   0.013621  -0.017057  -0.059249   0.035880
     9  H    0.017615   0.357137  -0.019511   0.004174   0.022458  -0.017150
    10  H   -0.003086   0.028511   0.378012  -0.029520  -0.009084  -0.073287
    11  C   -0.589338  -0.285461   0.196964  -0.718946  -0.082261  -1.942546
    12  C   -0.041313  -0.555005   1.515890  -1.344041   0.115286  -4.768817
    13  C    0.228277  -0.350588  -0.447091   0.222765   0.155304   0.725843
    14  H    0.001071   0.011925   0.047823  -0.039852   0.003430  -0.047504
    15  C   -0.538952  -0.064535   0.840858   0.020397  -1.802812  -4.928514
    16  H   -0.001135   0.000571   0.012277   0.022557   0.000219  -0.043350
    17  H    0.000220  -0.001624   0.008848  -0.026585   0.003605  -0.016809
    18  O    0.007232  -0.007337   0.007420  -0.177849  -0.003306  -0.071295
    19  H   -0.001478  -0.000634   0.002630  -0.007955   0.004021  -0.019982
    20  O    0.000879   0.000578  -0.002373   0.008000   0.001295  -0.006604
    21  O   -0.000322   0.000192  -0.002295  -0.011046   0.009059   0.072998
    22  H    0.000160   0.000038   0.000031   0.001358   0.000182   0.002103
               7          8          9         10         11         12
     1  C   -0.036463   0.386091   0.017615  -0.003086  -0.589338  -0.041313
     2  C   -0.008379   0.018009   0.357137   0.028511  -0.285461  -0.555005
     3  C   -0.003248   0.013621  -0.019511   0.378012   0.196964   1.515890
     4  C   -0.028086  -0.017057   0.004174  -0.029520  -0.718946  -1.344041
     5  C    0.396644  -0.059249   0.022458  -0.009084  -0.082261   0.115286
     6  C   -0.041185   0.035880  -0.017150  -0.073287  -1.942546  -4.768817
     7  H    0.434305  -0.005892  -0.000033   0.000026   0.064450   0.004663
     8  H   -0.005892   0.474632  -0.006246  -0.000088   0.000100   0.004169
     9  H   -0.000033  -0.006246   0.475017  -0.006721   0.008961   0.006915
    10  H    0.000026  -0.000088  -0.006721   0.476481   0.003644   0.056590
    11  C    0.064450   0.000100   0.008961   0.003644  13.471845   0.746141
    12  C    0.004663   0.004169   0.006915   0.056590   0.746141   9.381338
    13  C   -0.000183  -0.001252  -0.000892   0.012585  -3.691477  -0.012633
    14  H    0.000011  -0.000003  -0.000010   0.002716  -0.023715   0.390266
    15  C    0.026975  -0.000558   0.000779   0.003809  -1.767210   0.722307
    16  H   -0.000001   0.000000  -0.000000  -0.000005  -0.003337  -0.007716
    17  H   -0.000006  -0.000001   0.000000  -0.000002  -0.084680   0.020785
    18  O    0.007220   0.000060  -0.000009   0.000011   0.799036  -0.024892
    19  H   -0.000057  -0.000001   0.000000  -0.000000   0.054293   0.004553
    20  O    0.000104   0.000000  -0.000000   0.000000  -0.064569   0.006536
    21  O   -0.000010   0.000000  -0.000000  -0.000000   0.211358  -0.029832
    22  H   -0.000001   0.000000  -0.000000  -0.000000  -0.028554   0.001939
              13         14         15         16         17         18
     1  C    0.228277   0.001071  -0.538952  -0.001135   0.000220   0.007232
     2  C   -0.350588   0.011925  -0.064535   0.000571  -0.001624  -0.007337
     3  C   -0.447091   0.047823   0.840858   0.012277   0.008848   0.007420
     4  C    0.222765  -0.039852   0.020397   0.022557  -0.026585  -0.177849
     5  C    0.155304   0.003430  -1.802812   0.000219   0.003605  -0.003306
     6  C    0.725843  -0.047504  -4.928514  -0.043350  -0.016809  -0.071295
     7  H   -0.000183   0.000011   0.026975  -0.000001  -0.000006   0.007220
     8  H   -0.001252  -0.000003  -0.000558   0.000000  -0.000001   0.000060
     9  H   -0.000892  -0.000010   0.000779  -0.000000   0.000000  -0.000009
    10  H    0.012585   0.002716   0.003809  -0.000005  -0.000002   0.000011
    11  C   -3.691477  -0.023715  -1.767210  -0.003337  -0.084680   0.799036
    12  C   -0.012633   0.390266   0.722307  -0.007716   0.020785  -0.024892
    13  C   10.957707   0.030253  -1.553481   0.320917   0.016360  -0.048297
    14  H    0.030253   0.466001  -0.009349  -0.006597  -0.000039   0.000051
    15  C   -1.553481  -0.009349  14.694178   0.079397   0.452560  -0.341394
    16  H    0.320917  -0.006597   0.079397   0.468340  -0.005300  -0.000084
    17  H    0.016360  -0.000039   0.452560  -0.005300   0.405084  -0.003011
    18  O   -0.048297   0.000051  -0.341394  -0.000084  -0.003011   8.223982
    19  H   -0.016147  -0.000001  -0.023496  -0.000037   0.010704   0.056292
    20  O    0.035941   0.000000   0.048738   0.000067  -0.000764  -0.026136
    21  O   -0.103525   0.000000  -0.128611   0.000141  -0.012977   0.011095
    22  H    0.028544   0.000000   0.003980  -0.000004  -0.000048  -0.001684
              19         20         21         22
     1  C   -0.001478   0.000879  -0.000322   0.000160
     2  C   -0.000634   0.000578   0.000192   0.000038
     3  C    0.002630  -0.002373  -0.002295   0.000031
     4  C   -0.007955   0.008000  -0.011046   0.001358
     5  C    0.004021   0.001295   0.009059   0.000182
     6  C   -0.019982  -0.006604   0.072998   0.002103
     7  H   -0.000057   0.000104  -0.000010  -0.000001
     8  H   -0.000001   0.000000   0.000000   0.000000
     9  H    0.000000  -0.000000  -0.000000  -0.000000
    10  H   -0.000000   0.000000  -0.000000  -0.000000
    11  C    0.054293  -0.064569   0.211358  -0.028554
    12  C    0.004553   0.006536  -0.029832   0.001939
    13  C   -0.016147   0.035941  -0.103525   0.028544
    14  H   -0.000001   0.000000   0.000000   0.000000
    15  C   -0.023496   0.048738  -0.128611   0.003980
    16  H   -0.000037   0.000067   0.000141  -0.000004
    17  H    0.010704  -0.000764  -0.012977  -0.000048
    18  O    0.056292  -0.026136   0.011095  -0.001684
    19  H    0.418030   0.245050  -0.071875   0.003579
    20  O    0.245050   8.008631   0.094453  -0.025462
    21  O   -0.071875   0.094453   8.010317   0.198183
    22  H    0.003579  -0.025462   0.198183   0.561114
          Atomic-Atomic Spin Densities.
               1          2          3          4          5          6
     1  C    0.021120  -0.003663  -0.005777   0.053237   0.010698   0.002191
     2  C   -0.003663  -0.076408  -0.034601   0.046243   0.003774   0.016872
     3  C   -0.005777  -0.034601   0.101221  -0.108774   0.023197   0.130342
     4  C    0.053237   0.046243  -0.108774  -0.051216   0.045188   0.029559
     5  C    0.010698   0.003774   0.023197   0.045188  -0.107543  -0.006693
     6  C    0.002191   0.016872   0.130342   0.029559  -0.006693  -0.224681
     7  H    0.001105  -0.000431  -0.000260  -0.000047  -0.000456  -0.002255
     8  H   -0.000922   0.001478  -0.000682   0.000069  -0.000513   0.000486
     9  H   -0.000334  -0.000561   0.000463  -0.000299  -0.000354   0.001302
    10  H    0.000063   0.000597   0.001373  -0.002079   0.000588  -0.002926
    11  C   -0.005847  -0.000282   0.011038  -0.021215  -0.030147   0.127420
    12  C    0.000695   0.004216  -0.053531  -0.046593  -0.011900   0.148931
    13  C    0.001216   0.010137   0.025272   0.017156   0.005308  -0.090053
    14  H    0.000041   0.001923   0.006379   0.001762   0.000024  -0.004721
    15  C    0.020925  -0.014272   0.019025  -0.144536   0.027445   0.012948
    16  H    0.000020  -0.000111  -0.001235   0.000030   0.000074   0.002795
    17  H    0.000097   0.000019  -0.000418  -0.001637   0.001254   0.001381
    18  O   -0.000050  -0.000074   0.002158   0.005502   0.005491  -0.029618
    19  H    0.000013   0.000016  -0.000011   0.001010  -0.000601  -0.002842
    20  O    0.000011  -0.000008  -0.000010  -0.000727   0.000489   0.002796
    21  O    0.000012   0.000005  -0.000021   0.000008   0.000257   0.000995
    22  H   -0.000006   0.000000   0.000002   0.000052  -0.000063  -0.000064
               7          8          9         10         11         12
     1  C    0.001105  -0.000922  -0.000334   0.000063  -0.005847   0.000695
     2  C   -0.000431   0.001478  -0.000561   0.000597  -0.000282   0.004216
     3  C   -0.000260  -0.000682   0.000463   0.001373   0.011038  -0.053531
     4  C   -0.000047   0.000069  -0.000299  -0.002079  -0.021215  -0.046593
     5  C   -0.000456  -0.000513  -0.000354   0.000588  -0.030147  -0.011900
     6  C   -0.002255   0.000486   0.001302  -0.002926   0.127420   0.148931
     7  H    0.002035  -0.000033  -0.000000  -0.000000   0.001267  -0.000023
     8  H   -0.000033  -0.005897   0.000010   0.000003   0.000080   0.000127
     9  H   -0.000000   0.000010   0.002723  -0.000016  -0.000109  -0.000554
    10  H   -0.000000   0.000003  -0.000016  -0.004002  -0.000125   0.001504
    11  C    0.001267   0.000080  -0.000109  -0.000125  -0.046977  -0.012565
    12  C   -0.000023   0.000127  -0.000554   0.001504  -0.012565   0.382217
    13  C    0.000211  -0.000047  -0.000014   0.000947  -0.003377   0.065209
    14  H   -0.000000   0.000000  -0.000001   0.000061  -0.001125  -0.002773
    15  C    0.000915  -0.000059   0.000011  -0.000112  -0.032408  -0.070250
    16  H   -0.000000  -0.000000   0.000000  -0.000002   0.000220  -0.005496
    17  H   -0.000001   0.000000  -0.000000   0.000000   0.015203  -0.001499
    18  O   -0.000218  -0.000010   0.000001  -0.000001  -0.074657   0.001708
    19  H   -0.000000  -0.000000   0.000000   0.000000  -0.002695   0.000456
    20  O    0.000001  -0.000000  -0.000000  -0.000000   0.005434  -0.000556
    21  O   -0.000001   0.000000   0.000000   0.000000   0.004529  -0.000018
    22  H   -0.000000  -0.000000   0.000000  -0.000000  -0.000491   0.000016
              13         14         15         16         17         18
     1  C    0.001216   0.000041   0.020925   0.000020   0.000097  -0.000050
     2  C    0.010137   0.001923  -0.014272  -0.000111   0.000019  -0.000074
     3  C    0.025272   0.006379   0.019025  -0.001235  -0.000418   0.002158
     4  C    0.017156   0.001762  -0.144536   0.000030  -0.001637   0.005502
     5  C    0.005308   0.000024   0.027445   0.000074   0.001254   0.005491
     6  C   -0.090053  -0.004721   0.012948   0.002795   0.001381  -0.029618
     7  H    0.000211  -0.000000   0.000915  -0.000000  -0.000001  -0.000218
     8  H   -0.000047   0.000000  -0.000059  -0.000000   0.000000  -0.000010
     9  H   -0.000014  -0.000001   0.000011   0.000000  -0.000000   0.000001
    10  H    0.000947   0.000061  -0.000112  -0.000002   0.000000  -0.000001
    11  C   -0.003377  -0.001125  -0.032408   0.000220   0.015203  -0.074657
    12  C    0.065209  -0.002773  -0.070250  -0.005496  -0.001499   0.001708
    13  C   -0.212404  -0.000878  -0.000609   0.003492  -0.007292   0.004403
    14  H   -0.000878  -0.020382  -0.000178  -0.000110   0.000001   0.000003
    15  C   -0.000609  -0.000178   0.543867  -0.002049  -0.009688   0.011056
    16  H    0.003492  -0.000110  -0.002049   0.008530   0.000029   0.000008
    17  H   -0.007292   0.000001  -0.009688   0.000029  -0.018069   0.000454
    18  O    0.004403   0.000003   0.011056   0.000008   0.000454   0.550492
    19  H    0.000330   0.000000   0.004384   0.000001  -0.000249  -0.007835
    20  O   -0.000830  -0.000000  -0.006346  -0.000003   0.000156   0.004712
    21  O   -0.000197   0.000000  -0.006499  -0.000007   0.000945  -0.001220
    22  H    0.000111   0.000000   0.000593  -0.000000  -0.000063   0.000059
              19         20         21         22
     1  C    0.000013   0.000011   0.000012  -0.000006
     2  C    0.000016  -0.000008   0.000005   0.000000
     3  C   -0.000011  -0.000010  -0.000021   0.000002
     4  C    0.001010  -0.000727   0.000008   0.000052
     5  C   -0.000601   0.000489   0.000257  -0.000063
     6  C   -0.002842   0.002796   0.000995  -0.000064
     7  H   -0.000000   0.000001  -0.000001  -0.000000
     8  H   -0.000000  -0.000000   0.000000  -0.000000
     9  H    0.000000  -0.000000   0.000000   0.000000
    10  H    0.000000  -0.000000   0.000000  -0.000000
    11  C   -0.002695   0.005434   0.004529  -0.000491
    12  C    0.000456  -0.000556  -0.000018   0.000016
    13  C    0.000330  -0.000830  -0.000197   0.000111
    14  H    0.000000  -0.000000   0.000000   0.000000
    15  C    0.004384  -0.006346  -0.006499   0.000593
    16  H    0.000001  -0.000003  -0.000007  -0.000000
    17  H   -0.000249   0.000156   0.000945  -0.000063
    18  O   -0.007835   0.004712  -0.001220   0.000059
    19  H    0.000028   0.001228  -0.000282   0.000132
    20  O    0.001228  -0.004576   0.001766  -0.000744
    21  O   -0.000282   0.001766  -0.001840   0.000458
    22  H    0.000132  -0.000744   0.000458   0.000033
 Mulliken charges and spin densities:
               1          2
     1  C   -0.287045   0.094843
     2  C   -0.378376  -0.045132
     3  C   -0.046125   0.115148
     4  C   -0.151439  -0.177307
     5  C    0.143872  -0.034482
     6  C    0.578516   0.114163
     7  H    0.189147   0.001809
     8  H    0.157783  -0.005910
     9  H    0.157518   0.002267
    10  H    0.159408  -0.004128
    11  C   -0.274698  -0.066832
    12  C   -0.193130   0.399320
    13  C   -0.508930  -0.181909
    14  H    0.173523  -0.019975
    15  C    0.264934   0.354164
    16  H    0.163081   0.006186
    17  H    0.233679  -0.019378
    18  O   -0.407103   0.472364
    19  H    0.342512  -0.006920
    20  O   -0.324365   0.002792
    21  O   -0.247304  -0.001110
    22  H    0.254543   0.000026
 Sum of Mulliken charges =  -0.00000   1.00000
 Mulliken charges and spin densities with hydrogens summed into heavy atoms:
               1          2
     1  C   -0.129262   0.088934
     2  C   -0.220859  -0.042865
     3  C    0.113283   0.111020
     4  C   -0.151439  -0.177307
     5  C    0.333019  -0.032674
     6  C    0.578516   0.114163
    11  C   -0.274698  -0.066832
    12  C   -0.019607   0.379345
    13  C   -0.345849  -0.175724
    15  C    0.498613   0.334786
    18  O   -0.407103   0.472364
    20  O    0.018146  -0.004128
    21  O    0.007239  -0.001084
 Electronic spatial extent (au):  <R**2>=           2911.3385
 Charge=             -0.0000 electrons
 Dipole moment (field-independent basis, Debye):
    X=              4.9616    Y=              1.9677    Z=              1.3004  Tot=              5.4936
 Quadrupole moment (field-independent basis, Debye-Ang):
   XX=            -74.6396   YY=            -66.6769   ZZ=            -78.3957
   XY=             -0.6841   XZ=             -6.7270   YZ=             -1.9668
 Traceless Quadrupole moment (field-independent basis, Debye-Ang):
   XX=             -1.4022   YY=              6.5605   ZZ=             -5.1583
   XY=             -0.6841   XZ=             -6.7270   YZ=             -1.9668
 Octapole moment (field-independent basis, Debye-Ang**2):
  XXX=             31.3170  YYY=              7.4523  ZZZ=              4.0803  XYY=              2.4724
  XXY=            -14.3554  XXZ=             39.4509  XZZ=            -27.3758  YZZ=             -5.7019
  YYZ=              0.8647  XYZ=              8.0301
 Hexadecapole moment (field-independent basis, Debye-Ang**3):
 XXXX=          -2677.0234 YYYY=           -751.8216 ZZZZ=           -113.1008 XXXY=             61.9790
 XXXZ=           -186.4137 YYYX=             -2.3458 YYYZ=             -1.9975 ZZZX=            -24.1518
 ZZZY=              1.1661 XXYY=           -557.7243 XXZZ=           -481.5964 YYZZ=           -172.4478
 XXYZ=            -40.9122 YYXZ=             -3.7380 ZZXY=             17.7083
 N-N= 7.249306029485D+02 E-N=-2.879526872247D+03  KE= 6.095216348465D+02
                          Isotropic Fermi Contact Couplings
        Atom                 a.u.       MegaHertz       Gauss      10(-4) cm-1
     1  C(13)              0.00926      10.41460       3.71619       3.47394
     2  C(13)             -0.00834      -9.37637      -3.34572      -3.12762
     3  C(13)              0.01009      11.34790       4.04921       3.78525
     4  C(13)             -0.02161     -24.29051      -8.66746      -8.10244
     5  C(13)             -0.00820      -9.22270      -3.29089      -3.07636
     6  C(13)              0.00796       8.95172       3.19420       2.98597
     7  H(1)               0.00030       1.32163       0.47159       0.44085
     8  H(1)              -0.00119      -5.29804      -1.89047      -1.76724
     9  H(1)               0.00049       2.17255       0.77522       0.72468
    10  H(1)              -0.00114      -5.10129      -1.82027      -1.70161
    11  C(13)             -0.03103     -34.87823     -12.44542     -11.63413
    12  C(13)              0.04299      48.32730      17.24438      16.12025
    13  C(13)             -0.03051     -34.30194     -12.23979     -11.44190
    14  H(1)              -0.00538     -24.06303      -8.58629      -8.02656
    15  C(13)              0.03443      38.70717      13.81168      12.91132
    16  H(1)               0.00114       5.09433       1.81778       1.69929
    17  H(1)              -0.00542     -24.23092      -8.64619      -8.08256
    18  O(17)              0.09180     -55.64767     -19.85647     -18.56207
    19  H(1)               0.00022       0.96717       0.34511       0.32261
    20  O(17)             -0.00265       1.60890       0.57410       0.53667
    21  O(17)             -0.00070       0.42459       0.15150       0.14163
    22  H(1)              -0.00003      -0.11885      -0.04241      -0.03964
 --------------------------------------------------------
       Center         ----  Spin Dipole Couplings  ----
                      3XX-RR        3YY-RR        3ZZ-RR
 --------------------------------------------------------
     1   Atom       -0.039661     -0.041290      0.080951
     2   Atom        0.018085      0.019727     -0.037812
     3   Atom       -0.037973     -0.039183      0.077156
     4   Atom        0.032398      0.032257     -0.064655
     5   Atom        0.018587      0.007839     -0.026427
     6   Atom       -0.035690     -0.041909      0.077598
     7   Atom        0.006276     -0.001709     -0.004567
     8   Atom       -0.001462      0.002724     -0.001262
     9   Atom       -0.000522      0.002131     -0.001609
    10   Atom        0.001402      0.001313     -0.002716
    11   Atom        0.011592      0.030295     -0.041888
    12   Atom       -0.188138     -0.185759      0.373897
    13   Atom        0.058655      0.050944     -0.109599
    14   Atom       -0.008091      0.011354     -0.003263
    15   Atom       -0.163771     -0.165973      0.329743
    16   Atom        0.006218     -0.001265     -0.004953
    17   Atom        0.023730     -0.017414     -0.006316
    18   Atom       -0.906906     -0.934851      1.841757
    19   Atom        0.017415     -0.008464     -0.008951
    20   Atom       -0.000434      0.000633     -0.000199
    21   Atom        0.004292     -0.001199     -0.003093
    22   Atom        0.002857     -0.001479     -0.001378
 --------------------------------------------------------
                        XY            XZ            YZ
 --------------------------------------------------------
     1   Atom       -0.002383     -0.004800      0.001104
     2   Atom       -0.001216      0.002151     -0.000695
     3   Atom       -0.001054     -0.004207      0.001394
     4   Atom       -0.002644      0.004166     -0.001172
     5   Atom       -0.002532      0.001825     -0.000744
     6   Atom       -0.000312     -0.002801      0.001490
     7   Atom       -0.005540      0.000579     -0.000279
     8   Atom       -0.006273      0.000061     -0.000293
     9   Atom       -0.000839      0.000062     -0.000076
    10   Atom        0.004232      0.000126      0.000115
    11   Atom        0.010525      0.000235      0.000139
    12   Atom        0.005070     -0.024021      0.007086
    13   Atom        0.005152      0.006538     -0.001380
    14   Atom        0.025508     -0.000498      0.000921
    15   Atom       -0.003827     -0.016215      0.002790
    16   Atom        0.002176      0.000407      0.000063
    17   Atom       -0.007307      0.001145     -0.000155
    18   Atom       -0.016956     -0.176663      0.037543
    19   Atom       -0.003205      0.003829     -0.000413
    20   Atom        0.001732     -0.001377      0.000419
    21   Atom       -0.001644     -0.001002      0.000986
    22   Atom       -0.000145     -0.001676      0.000063
 --------------------------------------------------------


 ---------------------------------------------------------------------------------
              Anisotropic Spin Dipole Couplings in Principal Axis System
 ---------------------------------------------------------------------------------

       Atom             a.u.   MegaHertz   Gauss  10(-4) cm-1        Axes

              Baa    -0.0430    -5.773    -2.060    -1.926  0.5930  0.8051  0.0158
     1 C(13)  Bbb    -0.0381    -5.117    -1.826    -1.707  0.8042 -0.5931  0.0379
              Bcc     0.0812    10.890     3.886     3.633 -0.0399  0.0098  0.9992
 
              Baa    -0.0379    -5.086    -1.815    -1.697 -0.0381  0.0112  0.9992
     2 C(13)  Bbb     0.0175     2.346     0.837     0.783  0.8753  0.4828  0.0280
              Bcc     0.0204     2.740     0.978     0.914 -0.4821  0.8757 -0.0283
 
              Baa    -0.0398    -5.341    -1.906    -1.781  0.5137  0.8579  0.0083
     3 C(13)  Bbb    -0.0375    -5.036    -1.797    -1.680  0.8572 -0.5136  0.0377
              Bcc     0.0773    10.376     3.703     3.461 -0.0366  0.0123  0.9993
 
              Baa    -0.0648    -8.702    -3.105    -2.903 -0.0425  0.0109  0.9990
     4 C(13)  Bbb     0.0297     3.989     1.423     1.331  0.6863  0.7270  0.0213
              Bcc     0.0351     4.713     1.682     1.572  0.7261 -0.6865  0.0384
 
              Baa    -0.0265    -3.558    -1.269    -1.187 -0.0394  0.0187  0.9990
     5 C(13)  Bbb     0.0073     0.976     0.348     0.326  0.2199  0.9755 -0.0096
              Bcc     0.0192     2.581     0.921     0.861  0.9747 -0.2193  0.0425
 
              Baa    -0.0419    -5.628    -2.008    -1.877  0.0448  0.9989 -0.0114
     6 C(13)  Bbb    -0.0357    -4.797    -1.712    -1.600  0.9987 -0.0445  0.0253
              Bcc     0.0777    10.425     3.720     3.477 -0.0247  0.0125  0.9996
 
              Baa    -0.0046    -2.455    -0.876    -0.819 -0.1634 -0.2202  0.9617
     7 H(1)   Bbb    -0.0045    -2.423    -0.865    -0.808  0.4274  0.8627  0.2702
              Bcc     0.0091     4.878     1.741     1.627  0.8892 -0.4552  0.0468
 
              Baa    -0.0060    -3.193    -1.139    -1.065  0.8107  0.5848  0.0259
     8 H(1)   Bbb    -0.0013    -0.676    -0.241    -0.226 -0.0398  0.0109  0.9991
              Bcc     0.0073     3.870     1.381     1.291 -0.5840  0.8111 -0.0321
 
              Baa    -0.0016    -0.861    -0.307    -0.287 -0.0500  0.0090  0.9987
     9 H(1)   Bbb    -0.0008    -0.407    -0.145    -0.136  0.9592  0.2791  0.0455
              Bcc     0.0024     1.268     0.452     0.423 -0.2783  0.9602 -0.0226
 
              Baa    -0.0029    -1.534    -0.547    -0.512 -0.7033  0.7093  0.0474
    10 H(1)   Bbb    -0.0027    -1.451    -0.518    -0.484  0.0188 -0.0481  0.9987
              Bcc     0.0056     2.984     1.065     0.995  0.7107  0.7032  0.0205
 
              Baa    -0.0419    -5.621    -2.006    -1.875 -0.0041 -0.0013  1.0000
    11 C(13)  Bbb     0.0069     0.921     0.329     0.307  0.9122 -0.4098  0.0032
              Bcc     0.0350     4.700     1.677     1.568  0.4098  0.9122  0.0029
 
              Baa    -0.1931   -25.915    -9.247    -8.644  0.8038 -0.5935  0.0415
    12 C(13)  Bbb    -0.1819   -24.407    -8.709    -8.141  0.5934  0.8048  0.0154
              Bcc     0.3750    50.322    17.956    16.786 -0.0425  0.0122  0.9990
 
              Baa    -0.1099   -14.743    -5.261    -4.918 -0.0391  0.0098  0.9992
    13 C(13)  Bbb     0.0485     6.505     2.321     2.170 -0.4380  0.8986 -0.0260
              Bcc     0.0614     8.239     2.940     2.748  0.8981  0.4387  0.0308
 
              Baa    -0.0257   -13.715    -4.894    -4.575  0.8225 -0.5672  0.0415
    14 H(1)   Bbb    -0.0032    -1.724    -0.615    -0.575 -0.0426  0.0114  0.9990
              Bcc     0.0289    15.439     5.509     5.150  0.5671  0.8235  0.0148
 
              Baa    -0.1690   -22.675    -8.091    -7.563  0.6242  0.7811  0.0159
    15 C(13)  Bbb    -0.1613   -21.647    -7.724    -7.221  0.7806 -0.6244  0.0293
              Bcc     0.3303    44.322    15.815    14.784 -0.0328  0.0059  0.9994
 
              Baa    -0.0050    -2.651    -0.946    -0.884 -0.0373  0.0050  0.9993
    16 H(1)   Bbb    -0.0019    -0.988    -0.352    -0.329 -0.2597  0.9656 -0.0145
              Bcc     0.0068     3.638     1.298     1.214  0.9650  0.2600  0.0347
 
              Baa    -0.0187    -9.963    -3.555    -3.323  0.1699  0.9855 -0.0034
    17 H(1)   Bbb    -0.0064    -3.393    -1.211    -1.132 -0.0357  0.0096  0.9993
              Bcc     0.0250    13.356     4.766     4.455  0.9848 -0.1697  0.0368
 
              Baa    -0.9437    68.283    24.365    22.777  0.4953  0.8685  0.0197
    18 O(17)  Bbb    -0.9099    65.842    23.494    21.962  0.8664 -0.4955  0.0624
              Bcc     1.8536  -134.125   -47.859   -44.739 -0.0639  0.0138  0.9979
 
              Baa    -0.0095    -5.068    -1.808    -1.690 -0.1481 -0.0646  0.9869
    19 H(1)   Bbb    -0.0089    -4.722    -1.685    -1.575  0.1091  0.9907  0.0812
              Bcc     0.0183     9.790     3.493     3.266  0.9829 -0.1197  0.1397
 
              Baa    -0.0025     0.183     0.065     0.061  0.7226 -0.4647  0.5118
    20 O(17)  Bbb     0.0005    -0.035    -0.012    -0.012 -0.2441  0.5211  0.8178
              Bcc     0.0020    -0.148    -0.053    -0.049  0.6467  0.7159 -0.2631
 
              Baa    -0.0035     0.255     0.091     0.085  0.0427 -0.3641  0.9304
    21 O(17)  Bbb    -0.0014     0.102     0.036     0.034  0.3147  0.8887  0.3334
              Bcc     0.0049    -0.357    -0.127    -0.119  0.9482 -0.2786 -0.1526
 
              Baa    -0.0020    -1.046    -0.373    -0.349  0.3278 -0.0247  0.9444
    22 H(1)   Bbb    -0.0015    -0.792    -0.283    -0.264  0.0384  0.9992  0.0128
              Bcc     0.0034     1.838     0.656     0.613  0.9440 -0.0321 -0.3284
 

 ---------------------------------------------------------------------------------

 Calling FoFJK, ICntrl=      2127 FMM=F ISym2X=0 I1Cent= 0 IOpClX= 1 NMat=1 NMatS=1 NMatT=0.
 ***** Axes restored to original set *****
 -------------------------------------------------------------------
 Center     Atomic                   Forces (Hartrees/Bohr)
 Number     Number              X              Y              Z
 -------------------------------------------------------------------
      1        6           0.000007182    0.000042752    0.000011293
      2        6           0.000001584    0.000038434    0.000011219
      3        6          -0.000006980    0.000043035    0.000001208
      4        6          -0.000015977   -0.000003931   -0.000000598
      5        6           0.000041536   -0.000000827    0.000019698
      6        6          -0.000007985    0.000026831   -0.000000047
      7        1           0.000025974    0.000011544    0.000012765
      8        1           0.000038031    0.000035832    0.000024285
      9        1           0.000011354    0.000057775    0.000014024
     10        1          -0.000020305    0.000039488    0.000001039
     11        6          -0.056555367   -0.083025408   -0.001895243
     12        6          -0.000031634    0.000006910   -0.000014172
     13        6          -0.000021376    0.000020098   -0.000013990
     14        1          -0.000033380    0.000017571   -0.000009896
     15        6          -0.000021509   -0.000039946   -0.000010473
     16        1          -0.000033376   -0.000018091   -0.000015933
     17        1          -0.000020708   -0.000028293   -0.000003786
     18        8           0.056591911    0.082980487    0.001901498
     19        1          -0.005345851    0.001813953   -0.000702726
     20        8           0.005385374   -0.001924197    0.000676132
     21        8           0.000020684   -0.000032785   -0.000015302
     22        1          -0.000009183   -0.000061234    0.000009005
 -------------------------------------------------------------------
 Cartesian Forces:  Max     0.083025408 RMS     0.017517480

 GradGradGradGradGradGradGradGradGradGradGradGradGradGradGradGradGradGrad
 Berny optimization.
 FormGI is forming the generalized inverse of G from B-inverse, IUseBI=4.
 Internal  Forces:  Max     0.100477440 RMS     0.009775122
 Search for a local minimum.
 Step number   1 out of a maximum of  132
 All quantities printed in internal units (Hartrees-Bohrs-Radians)
 Mixed Optimization -- RFO/linear search
 Second derivative matrix not updated -- first step.
 ITU=  0
     Eigenvalues ---    0.00230   0.01016   0.01188   0.01188   0.01678
     Eigenvalues ---    0.01790   0.01850   0.01924   0.01943   0.02016
     Eigenvalues ---    0.02049   0.02093   0.02135   0.02152   0.02193
     Eigenvalues ---    0.02220   0.02237   0.02268   0.02287   0.02319
     Eigenvalues ---    0.06639   0.15998   0.16000   0.16000   0.16000
     Eigenvalues ---    0.16000   0.16000   0.16000   0.16000   0.16000
     Eigenvalues ---    0.16000   0.22000   0.22078   0.22562   0.23507
     Eigenvalues ---    0.24501   0.24928   0.25000   0.35774   0.35831
     Eigenvalues ---    0.35848   0.35854   0.35908   0.35959   0.36055
     Eigenvalues ---    0.37299   0.38417   0.40998   0.41886   0.42299
     Eigenvalues ---    0.42872   0.43925   0.45034   0.46498   0.47786
     Eigenvalues ---    0.48390   0.49619   0.49874   0.49934   0.54913
 RFO step:  Lambda=-1.95210151D-02 EMin= 2.30000000D-03
 Linear search not attempted -- first point.
 Iteration  1 RMS(Cart)=  0.03450735 RMS(Int)=  0.00009027
 Iteration  2 RMS(Cart)=  0.00018490 RMS(Int)=  0.00000003
 Iteration  3 RMS(Cart)=  0.00000005 RMS(Int)=  0.00000000
 Variable       Old X    -DE/DX   Delta X   Delta X   Delta X     New X
                                 (Linear)    (Quad)   (Total)
    R1        2.65307  -0.00000   0.00000  -0.00000  -0.00000   2.65307
    R2        2.60219  -0.00001   0.00000  -0.00001  -0.00001   2.60217
    R3        2.04225   0.00000   0.00000   0.00001   0.00001   2.04226
    R4        2.59480  -0.00000   0.00000  -0.00001  -0.00001   2.59480
    R5        2.04310   0.00000   0.00000   0.00001   0.00001   2.04311
    R6        2.66326  -0.00000   0.00000  -0.00001  -0.00001   2.66325
    R7        2.04347  -0.00000   0.00000  -0.00001  -0.00001   2.04347
    R8        2.67011  -0.00001   0.00000  -0.00002  -0.00002   2.67009
    R9        2.68712   0.00001   0.00000   0.00001   0.00001   2.68713
   R10        2.64428   0.00001   0.00000   0.00002   0.00002   2.64430
   R11        2.03995  -0.00000   0.00000  -0.00000  -0.00000   2.03995
   R12        2.73249  -0.00001   0.00000  -0.00004  -0.00004   2.73245
   R13        2.67262   0.00001   0.00000   0.00002   0.00002   2.67265
   R14        2.59932  -0.10048   0.00000  -0.19365  -0.19365   2.40567
   R15        2.61372  -0.00001   0.00000  -0.00002  -0.00002   2.61370
   R16        2.04437   0.00000   0.00000   0.00001   0.00001   2.04438
[...]
 0019242,-0.00001591,-0.00042758,0.00070466,-0.00002990,-0.00182496,0.0
 0099197,-0.00014573,0.01117177,0.00957120,0.00040101,0.05437499,0.6524
 5477,0.00023474,0.00028181,-0.00085548,-0.00056532,-0.00087676,0.00651
 714,-0.00239795,0.00214275,0.00352550,-0.00392578,0.00390769,-0.064007
 71,-0.00014074,-0.00012690,0.00588026,0.00123497,0.00114842,0.00518362
 ,0.00003263,-0.00004620,0.00009903,0.00005081,-0.00000266,-0.00103530,
 -0.00001719,0.00004309,0.00020405,0.00024117,-0.00002430,-0.00342132,-
 0.00010865,0.00039810,-0.00687287,0.01959246,-0.00658879,0.13682384,-0
 .00586157,-0.00577443,-0.00015012,0.00082335,0.01466403,-0.00020213,0.
 02158478,-0.00690169,0.00081714,-0.04273563,0.05870830,-0.00274332,0.0
 0056590,-0.00090748,0.00007486,-0.01653948,-0.01151554,-0.00043921,-0.
 00034417,0.00022591,-0.00002350,-0.00005546,-0.00008477,-0.00001449,-0
 .00011724,0.00039455,-0.00000153,0.00025594,-0.00031899,0.00003043,0.0
 1770344,-0.03158078,0.00120211,-0.28231478,-0.01673534,-0.00897277,0.6
 0744477,-0.00068064,-0.00208135,0.00000669,0.00200284,0.00538006,-0.00
 002394,0.00882882,-0.00879443,0.00058194,0.02415163,0.02317073,0.00083
 625,-0.00130325,0.00114898,-0.00009745,-0.00478038,-0.00482202,-0.0001
 6174,-0.00031789,0.00013519,-0.00001812,-0.00007567,-0.00001621,0.0000
 0360,0.00019063,-0.00038297,0.00000489,0.00044308,0.00006448,0.0000193
 5,-0.02073613,-0.04789110,-0.00013077,0.08545853,-0.13452793,0.0043439
 3,-0.06357549,0.71270100,-0.00026743,-0.00019684,0.00002319,0.00001392
 ,0.00050624,-0.00054860,0.00055429,-0.00006786,0.00446315,-0.00236908,
 0.00207529,0.00762648,0.00010720,-0.00011986,-0.00053743,-0.00051248,-
 0.00040793,-0.00250948,-0.00001061,0.00000927,0.00003477,-0.00000957,0
 .00000008,0.00016008,0.00000617,0.00001676,-0.00037494,0.00000215,-0.0
 0001479,0.00006773,0.00077134,-0.00056862,0.00430470,-0.00984242,0.000
 25059,-0.06125286,0.01938109,-0.01014452,0.13240579,0.00023398,0.00015
 092,0.00000266,-0.00002830,-0.00059163,0.00001153,0.00100140,0.0014789
 6,0.00012480,0.01091154,0.01153767,0.00004173,0.00056625,0.00062693,0.
 00002522,-0.00120945,0.00277468,-0.00028024,-0.00011099,0.00020049,0.0
 0000159,-0.00002255,-0.00002494,-0.00000297,0.00000448,-0.00001542,-0.
 00000227,-0.00010199,-0.00047703,-0.00002225,-0.00060630,0.00045316,0.
 00000492,-0.14334056,-0.12650917,-0.00179191,-0.01102232,-0.02699203,-
 0.00035390,0.14868821,0.00023256,0.00020896,0.00001181,0.00035299,-0.0
 0000191,0.00000910,-0.00184439,0.00108315,-0.00012699,-0.01703832,-0.0
 1861673,-0.00029728,-0.00161093,-0.00064591,-0.00006412,0.00399573,-0.
 00281742,0.00029394,0.00026729,-0.00035561,0.00001231,0.00007359,0.000
 03941,0.00000397,0.00002209,-0.00003325,0.00000246,0.00116139,0.000189
 47,0.00005898,0.00091706,-0.00068518,0.00002900,-0.12689673,-0.2527587
 8,-0.00110696,0.00273451,0.00623127,0.00014175,0.13665333,0.26514161,0
 .00000121,0.00000204,0.00012309,-0.00000263,-0.00001324,-0.00004667,0.
 00017781,0.00000335,-0.00255134,0.00044501,0.00095822,0.00551874,0.000
 05479,0.00003924,-0.00025327,-0.00031366,0.00023485,0.00433068,-0.0000
 0196,0.00001113,-0.00022420,-0.00000402,-0.00000118,0.00005033,-0.0000
 0344,0.00000172,0.00007719,-0.00001042,-0.00004398,0.00022807,-0.00000
 172,0.00003220,-0.00087169,-0.00174967,-0.00115281,-0.03853688,-0.0007
 8560,-0.00112156,0.00735388,0.00249073,0.00102271,0.02339482,0.0023354
 9,0.00234886,0.00008221,-0.00125101,-0.00436352,0.00002063,-0.00567309
 ,0.00200179,-0.00021407,0.00772850,-0.01174377,0.00062036,-0.00755070,
 -0.00103717,-0.00037608,-0.00788268,0.03327683,-0.00132544,0.00025479,
 -0.00008786,-0.00000075,-0.00065244,0.00014331,-0.00002059,0.00009681,
 -0.00021229,-0.00000375,-0.00013016,0.00002476,-0.00001045,-0.16263790
 ,0.07294544,-0.00486386,-0.06108589,-0.02126751,-0.00231133,-0.1788893
 8,-0.12648010,-0.00295310,-0.00574703,0.00129352,-0.00049494,0.7263063
 0,0.00326725,0.00493188,0.00006666,0.00041073,-0.00700841,0.00014824,-
 0.00934639,0.00341826,-0.00044850,0.01363138,-0.02718986,0.00086403,-0
 .00296804,0.00209322,-0.00013206,0.01614801,0.00339197,0.00052403,-0.0
 0002506,0.00009368,0.00000103,0.00001794,0.00000885,0.00000436,-0.0000
 4624,-0.00010165,0.00000459,0.00007084,0.00013887,-0.00001392,0.086594
 09,-0.16252405,0.00545300,-0.08577196,0.02351728,-0.00337557,-0.045254
 78,-0.27542308,0.00136026,0.00187165,0.00182889,0.00014499,0.05112704,
 0.61355583,0.00007253,-0.00001405,-0.00057716,-0.00008253,-0.00004082,
 0.00016897,-0.00004988,0.00000157,-0.00086845,0.00020216,-0.00011212,-
 0.00353052,-0.00039566,-0.00000399,0.00210045,-0.00109892,0.00144707,0
 .01428285,0.00000450,-0.00000678,0.00009624,-0.00001990,0.00000324,-0.
 00025780,-0.00000249,-0.00000481,0.00015154,-0.00001314,-0.00000176,0.
 00002828,-0.00503930,0.00412503,-0.07925819,-0.00134453,-0.00099510,0.
 00638778,-0.00380831,-0.00162792,-0.05755567,-0.00046831,0.00012459,0.
 00591208,0.01684991,-0.00477131,0.12767396,-0.00002789,-0.00018961,-0.
 00000584,-0.00053497,0.00013942,0.00000131,0.00025276,0.00141414,-0.00
 003557,-0.00557536,-0.00139543,-0.00049470,0.00014277,0.00014432,0.000
 02728,0.00002356,-0.00076775,0.00007192,-0.00004397,0.00004272,-0.0000
 0396,0.00001078,0.00001317,-0.00000469,-0.00005990,0.00014503,-0.00000
 053,-0.00003109,-0.00004110,-0.00000534,-0.00293402,-0.00228817,-0.000
 47452,-0.00882994,0.03035737,-0.00082143,-0.11473607,0.10848859,-0.004
 37881,0.00092052,-0.00043006,0.00020185,0.01292343,-0.01794140,0.00044
 835,0.11721889,-0.00016830,-0.00008844,-0.00000368,0.00004317,0.000206
 60,-0.00000907,0.00009789,-0.00011415,0.00000712,-0.00048956,0.0014747
 3,0.00004265,0.00023383,-0.00008667,0.00000391,-0.00039072,0.00025940,
 -0.00002716,-0.00003446,0.00001719,-0.00000157,0.00001254,-0.00000929,
 0.00000227,-0.00000254,-0.00000074,-0.00000086,0.00001452,-0.00000820,
 0.00000236,-0.00416345,0.00019995,-0.00005938,-0.00142312,0.00270496,-
 0.00004118,0.10997686,-0.28706232,0.00713182,0.00025317,0.00056226,-0.
 00003136,0.01258789,-0.01958260,0.00083182,-0.11688134,0.30276240,0.00
 000537,0.00000160,0.00015860,-0.00000447,-0.00003030,-0.00056350,-0.00
 005192,0.00008366,0.00033773,-0.00045255,-0.00002246,0.00704449,0.0000
 2911,-0.00000292,-0.00057414,0.00008251,-0.00005528,-0.00135759,-0.000
 00137,0.00000136,0.00002342,-0.00000410,0.00000270,0.00011291,0.000000
 70,0.00000358,-0.00008502,-0.00000507,0.00000053,0.00010998,-0.0003625
 4,0.00010799,0.00955660,-0.00072597,0.00133101,0.00372253,-0.00400773,
 0.00699740,-0.04392851,0.00016838,-0.00009222,-0.00379623,0.00004302,-
 0.00047924,0.00594507,0.00516774,-0.00778260,0.02975833,-0.00022511,0.
 00005581,-0.00000828,0.00002760,0.00009711,-0.00000311,-0.00007878,-0.
 00010919,0.00000285,0.00050027,0.00009141,0.00002528,0.00003017,-0.000
 46366,0.00000007,0.00002322,0.00161909,-0.00002825,0.00003074,0.000027
 45,-0.00000125,-0.00004112,-0.00000949,0.00000009,0.00000541,-0.000002
 35,-0.00000023,0.00000452,-0.00000795,-0.00000088,-0.00780130,-0.00066
 769,-0.00032042,-0.00033897,-0.00187259,-0.00002363,-0.00690747,0.0032
 1357,-0.00033227,-0.00032826,0.00021275,-0.00001340,-0.34203322,0.0172
 1376,-0.00733270,0.00067547,-0.00003032,0.00003052,0.35779623,0.000296
 27,-0.00035641,0.00000794,-0.00001718,-0.00021392,0.00000847,-0.000220
 28,0.00028796,-0.00001877,0.00001098,-0.00079003,-0.00001804,0.0013830
 6,0.00068032,0.00006908,0.00101935,-0.00568580,0.00023922,-0.00003248,
 -0.00000925,-0.00000079,0.00017515,-0.00000789,0.00000205,0.00000396,0
 .00001508,0.00000112,0.00008517,0.00001674,0.00000298,0.03103501,0.003
 03312,0.00091730,-0.00297555,-0.00445184,0.00004663,-0.02608197,0.0070
 6809,-0.00081562,-0.00127205,0.00018464,-0.00007503,0.01627280,-0.0618
 0024,0.00007724,0.00047571,0.00092252,-0.00006025,-0.01654090,0.060658
 71,-0.00002498,0.00002057,-0.00020868,0.00000379,0.00004092,0.00018162
 ,0.00006699,-0.00002383,-0.00045146,0.00003466,0.00008101,-0.00096563,
 -0.00008547,-0.00002039,0.00050008,-0.00021806,0.00028456,0.00301658,-
 0.00000105,0.00000366,0.00008242,-0.00000079,-0.00000167,-0.00017013,-
 0.00000419,0.00000202,0.00004771,0.00000019,-0.00000105,0.00002673,-0.
 00117449,0.00005751,0.00590452,-0.00007341,-0.00014867,0.00738618,-0.0
 0090080,0.00016289,0.00715821,-0.00000865,-0.00000574,-0.00067883,-0.0
 0565140,-0.00010961,-0.03934681,0.00019901,-0.00010715,-0.00473967,0.0
 0764746,0.00034537,0.02502970,-0.00432522,-0.00286987,-0.00010029,-0.0
 0011301,0.00327400,-0.00006495,0.00111255,-0.00369052,0.00016407,-0.00
 953373,0.01277830,-0.00068788,0.00618425,-0.00758285,0.00033366,-0.060
 05178,-0.04666467,-0.00277764,-0.00242165,-0.00024880,-0.00009462,-0.0
 0026347,0.00011338,-0.00001814,-0.00011498,0.00007695,-0.00001554,-0.0
 0095824,-0.00009196,-0.00002747,-0.24707886,-0.20689120,-0.00603679,-0
 .00769907,-0.00479053,-0.00021120,0.01248616,0.01142401,0.00023025,0.0
 0031669,-0.00011703,0.00001439,0.02260300,-0.02777499,0.00074812,0.000
 51023,0.00018776,0.00007015,0.00061619,-0.00306880,0.00042108,0.301618
 04,-0.00849594,0.00070868,-0.00036311,0.00212743,0.00769085,-0.0000374
 1,0.00643490,-0.00301151,0.00029516,-0.00415090,0.01049580,-0.00028440
 ,0.00972145,-0.01135906,0.00061916,-0.04676650,0.00171868,-0.00197836,
 0.00092073,0.00233417,-0.00003825,-0.00041254,-0.00008622,-0.00000214,
 -0.00005053,0.00040354,-0.00001367,-0.00000514,-0.00005557,-0.00001278
 ,-0.22239347,-0.41120818,-0.00538346,-0.00657123,-0.01004391,-0.000072
 89,0.02226847,0.00513575,0.00083129,-0.00011356,0.00044374,-0.00001557
 ,-0.02586737,-0.09877381,0.00057106,-0.00135392,-0.00221952,-0.0000082
 9,-0.00153970,0.00268217,-0.00005328,0.26871456,0.50777083,-0.00004297
 ,-0.00015015,-0.00049440,-0.00005142,0.00002675,-0.00001546,-0.0000290
 8,-0.00016682,-0.00084656,-0.00062092,0.00056710,0.00275934,0.00016161
 ,-0.00022585,-0.00064966,-0.00292488,-0.00229474,0.01449719,-0.0000986
 7,-0.00008888,-0.00010826,-0.00002241,0.00001324,0.00009811,-0.0000130
 7,-0.00000117,0.00010601,-0.00005528,-0.00000747,-0.00015940,-0.005596
 41,-0.00384638,-0.06224056,-0.00018841,-0.00011146,0.00019313,0.000041
 87,0.00035729,0.00301534,0.00001621,-0.00001686,-0.00002400,0.00054424
 ,0.00038087,0.01982544,0.00009614,-0.00001098,-0.00170230,0.00015007,-
 0.00025401,-0.00301781,0.01026507,0.00502306,0.03200358,-0.00082840,-0
 .00030105,0.00001283,0.00015536,0.00094840,-0.00001693,0.00083008,-0.0
 0051911,0.00007582,0.00031737,-0.00047405,-0.00005966,0.00098062,-0.00
 003463,0.00004889,0.00244825,0.00216573,-0.00049542,-0.00027214,0.0002
 7838,-0.00002866,0.00010498,-0.00007147,-0.00000705,0.00007571,0.00001
 691,-0.00000076,0.00012306,0.00004187,0.00001460,-0.00724457,-0.013596
 73,0.00002273,-0.00068282,0.00047287,-0.00001689,0.00049484,0.00080258
 ,0.00000498,0.00001911,0.00003149,-0.00000092,-0.00018852,0.00064453,0
 .00041251,0.00017404,0.00036094,-0.00007322,0.00181033,0.00021965,-0.0
 0048206,0.00901495,0.00882153,0.00260414,0.41566020,0.00004789,-0.0000
 6913,0.00001352,0.00001075,-0.00014601,-0.00000971,-0.00023221,-0.0000
 2246,0.00002174,-0.00001801,-0.00001318,-0.00001627,0.00024017,0.00002
 546,-0.00002856,-0.00058312,-0.00074471,-0.00005100,0.00007342,0.00001
 410,0.00002031,0.00002009,0.00000039,0.00000089,0.00000199,-0.00000979
 ,0.00000123,-0.00002508,0.00000479,-0.00000375,-0.00347971,0.00266502,
 -0.00045606,-0.00033969,0.00033273,-0.00006389,0.00115161,-0.00027711,
 0.00009000,0.00010832,-0.00001559,0.00000467,-0.00206675,-0.00011030,0
 .00007970,-0.00002500,-0.00004792,0.00000824,-0.00027826,-0.00193553,-
 0.00035212,0.00294125,-0.00838667,0.00038383,-0.12525272,0.07763944,-0
 .00011472,-0.00003104,-0.00009174,0.00003131,0.00014657,0.00003199,0.0
 0015359,-0.00005197,-0.00012480,0.00010747,-0.00006832,0.00012674,0.00
 011476,0.00000180,-0.00003792,0.00047258,0.00055610,0.00135854,-0.0000
 5685,0.00005087,0.00005496,0.00001653,-0.00001066,0.00003172,0.0000107
 2,0.00000396,0.00001017,0.00002840,0.00000572,-0.00001755,-0.00078829,
 -0.00252873,0.00035621,-0.00004300,0.00003823,0.00005950,0.00002153,0.
 00018523,-0.00001704,-0.00000120,0.00000872,0.00000423,0.00013750,0.00
 018878,-0.00098319,0.00002870,0.00006985,0.00006373,0.00013880,0.00008
 929,0.00055596,0.00332949,0.00115649,-0.00681291,0.04518957,0.01267561
 ,0.07385389,0.00036745,0.00013692,0.00001299,-0.00008668,-0.00040543,-
 0.00000768,-0.00034043,0.00020048,-0.00002361,-0.00032611,0.00038368,-
 0.00001309,-0.00044904,-0.00002408,-0.00004131,-0.00124837,-0.00141791
 ,0.00024712,0.00016369,-0.00015060,0.00001373,-0.00006080,0.00003949,0
 .00000193,-0.00004408,-0.00000605,-0.00000032,-0.00007179,-0.00002822,
 -0.00000326,0.00204681,0.00757246,-0.00000593,0.00051516,-0.00039047,0
 .00008146,-0.00079547,-0.00022053,-0.00007162,-0.00005791,-0.00001748,
 0.00000051,0.00117386,-0.00109254,-0.00067280,-0.00007399,-0.00016068,
 -0.00000073,-0.00151928,-0.00096115,0.00023860,-0.02336386,-0.00089165
 ,-0.00364689,-0.42402444,0.10351848,-0.09334138,0.50583085,-0.00006658
 ,0.00003798,-0.00001362,0.00000317,0.00014238,0.00000612,0.00020285,0.
 00000314,-0.00001594,-0.00000641,0.00003518,-0.00000772,-0.00010664,-0
 .00002616,0.00000710,0.00036707,0.00049432,0.00017304,-0.00006071,0.00
 001554,-0.00000353,-0.00001021,-0.00000205,-0.00000045,0.00000083,0.00
 000873,0.00000001,0.00002342,-0.00000210,0.00000100,0.00021949,-0.0028
 2590,0.00032583,0.00032289,-0.00018216,0.00009917,-0.00073971,0.000152
 61,-0.00002348,-0.00005668,0.00001229,-0.00000488,0.00101794,-0.000116
 44,-0.00067143,0.00005733,0.00009324,-0.00005324,-0.00031662,-0.000322
 44,0.00000357,0.00392223,0.00466624,-0.00058039,0.13193657,-0.05436586
 ,0.01372432,-0.15066932,0.15683336,0.00002071,-0.00003544,0.00003636,-
 0.00000795,-0.00005885,-0.00001485,-0.00009699,-0.00002203,0.00003574,
 -0.00004808,0.00000627,-0.00002455,0.00007259,-0.00000436,0.00000714,-
 0.00030114,-0.00039171,-0.00027416,0.00003797,-0.00002560,-0.00001669,
 0.00000293,0.00000087,-0.00001016,0.00000021,-0.00000466,-0.00000524,-
 0.00001617,0.00000132,0.00000184,-0.00012221,0.00189222,-0.00002713,-0
 .00014550,0.00016749,-0.00003820,0.00059729,-0.00015168,0.00003895,0.0
 0004869,-0.00000923,-0.00000371,-0.00036549,0.00027333,0.00036979,-0.0
 0002064,-0.00002772,-0.00004070,-0.00025616,-0.00079744,-0.00048245,-0
 .00568365,-0.00112837,0.00164675,-0.03917388,-0.00409768,-0.04752268,0
 .02122426,0.12760426,0.29790059,0.00012778,0.00008125,-0.00002637,-0.0
 0002966,-0.00009654,0.00002096,-0.00002238,0.00012089,-0.00001664,-0.0
 0005205,0.00012383,0.00003050,-0.00024920,0.00001868,0.00005181,-0.000
 05894,-0.00002753,-0.00006835,0.00002917,-0.00002028,-0.00001620,-0.00
 002237,0.00001576,-0.00000266,-0.00001949,0.00000236,-0.00000269,-0.00
 001104,-0.00001501,-0.00000394,0.00070025,0.00039572,-0.00054097,0.000
 40081,-0.00033728,-0.00011346,-0.00099640,0.00007973,0.00001190,-0.000
 07925,0.00000296,-0.00000701,0.00022917,-0.00062018,0.00143057,-0.0000
 1617,-0.00004196,0.00007104,-0.00221618,-0.00004414,0.00014034,0.00054
 970,-0.00108878,-0.00005647,0.00282593,0.02572645,0.04074886,-0.057540
 98,0.01322411,0.02720649,0.18885556,-0.00001985,0.00002509,-0.00000138
 ,-0.00000024,0.00004880,-0.00001507,0.00006864,-0.00000765,0.00002112,
 -0.00005445,0.00004280,0.00003209,-0.00006015,-0.00002441,0.00001985,0
 .00009780,0.00008748,-0.00009039,-0.00001655,0.00000297,0.00000711,-0.
 00000931,0.00000037,0.00000188,-0.00000163,0.00000382,-0.00000044,0.00
 000411,-0.00000091,0.00000291,-0.00039846,-0.00076521,-0.00005975,0.00
 012339,-0.00013685,-0.00010967,-0.00047114,0.00005916,0.00000777,-0.00
 003843,0.00000400,0.00000383,-0.00009766,-0.00038816,0.00084423,0.0000
 3170,0.00002160,0.00003618,-0.00097655,0.00002718,0.00002688,-0.000266
 22,0.00115572,0.00044263,-0.00596981,-0.01506177,-0.02155142,0.0229937
 2,-0.11317029,-0.08943273,0.14845962,0.38105239,-0.00000674,-0.0000119
 1,0.00000280,0.00000884,0.00001423,0.00001602,0.00000943,-0.00000687,0
 .00001477,0.00003096,-0.00001011,-0.00004397,0.00004435,0.00000179,0.0
 0004222,0.00009216,0.00001282,-0.00019263,-0.00000673,-0.00000329,-0.0
 0003846,0.00000441,-0.00000196,-0.00001361,0.00000249,-0.00000070,-0.0
 0000550,0.00000578,0.00000134,-0.00000489,0.00059095,-0.00010005,-0.00
 016341,-0.00002522,0.00008044,0.00008025,0.00023755,-0.00002779,0.0000
 5985,0.00002459,0.00000006,-0.00001352,0.00021002,0.00003303,-0.000670
 46,-0.00000622,0.00001736,-0.00007189,-0.00014907,-0.00009964,0.000410
 34,0.00050731,0.00081587,0.00204336,-0.00862410,-0.00826807,-0.0186144
 4,0.05687482,-0.14866272,-0.21846401,-0.21225334,-0.05303836,0.4288525
 4,-0.00007223,-0.00001250,0.00000131,0.00000407,0.00007736,-0.00001043
 ,0.00006349,-0.00005273,0.00000995,-0.00000191,-0.00003851,0.00000998,
 0.00005764,-0.00001861,-0.00002930,0.00011069,0.00012800,0.00003377,-0
 .00003233,0.00002146,0.00002269,0.00000344,-0.00000647,0.00000594,0.00
 000884,0.00000225,0.00000238,0.00000756,0.00000623,0.00000121,-0.00073
 103,-0.00095661,0.00015565,-0.00009477,0.00000293,-0.00005001,-0.00004
 374,0.00007811,0.00001799,-0.00000728,0.00000367,0.00000310,0.00007066
 ,-0.00015564,0.00015985,0.00001092,0.00001788,0.00002112,-0.00003046,0
 .00023741,-0.00012675,0.00091212,0.00069214,-0.00053245,-0.00179394,-0
 .00153987,0.00381565,-0.00009460,0.00073500,-0.00297328,-0.13240427,-0
 .16339851,0.16242776,0.13405714,-0.00000559,0.00000465,0.00001180,0.00
 000129,0.00000164,0.00000464,0.00000386,0.00000389,0.00000212,0.000004
 37,-0.00000403,-0.00003499,-0.00000692,0.00001469,-0.00001974,0.000018
 63,0.00006831,-0.00006445,0.00000960,0.00000779,-0.00001465,0.00000278
 ,0.00000069,-0.00000252,-0.00000205,0.00000003,-0.00000053,-0.00000038
 ,-0.00000251,0.00000102,-0.00024489,-0.00024269,0.00000900,0.00003601,
 -0.00005471,0.00002420,-0.00018215,0.00003122,-0.00006158,-0.00001835,
 0.00000070,0.00000065,0.00018381,0.00003987,0.00014453,0.00000429,-0.0
 0000503,0.00001253,0.00028433,-0.00000318,-0.00020547,0.00062500,-0.00
 006171,0.00056038,-0.00052188,0.00052408,-0.00465941,0.02159086,0.0085
 1840,-0.03375828,-0.18595963,-0.25297612,0.20925453,0.16417701,0.24413
 404,0.00002597,0.00003018,-0.00000084,-0.00000853,-0.00001791,-0.00000
 992,0.00000276,0.00002550,0.00000388,-0.00003514,0.00003286,0.00000468
 ,-0.00008323,0.00000948,-0.00002350,-0.00003078,-0.00000561,0.00000744
 ,0.00000977,-0.00000159,0.00001764,-0.00000735,0.00000406,0.00000568,-
 0.00000525,0.00000148,0.00000321,-0.00000324,-0.00000377,0.00000441,0.
 00003624,-0.00004343,0.00003048,0.00012390,-0.00011593,-0.00004220,-0.
 00035435,0.00000604,0.00001242,-0.00002936,0.00000002,0.00000720,0.000
 08336,-0.00011698,0.00010581,0.00000994,-0.00000647,0.00002617,0.00047
 453,0.00033290,-0.00023859,-0.00036541,0.00007989,-0.00011693,0.000593
 46,0.00004737,-0.00228537,0.01913320,0.00809299,-0.03311263,0.14339564
 ,0.16285273,-0.19322535,-0.16296614,-0.17120382,0.22882631\\-0.0000273
 9,-0.00003858,-0.00001919,-0.00000707,-0.00004920,-0.00001074,0.000010
 69,-0.00004165,0.00000093,0.00001150,-0.00002524,0.00000257,-0.0000252
 1,-0.00001903,-0.00001690,0.00000599,-0.00000058,-0.00001362,-0.000036
 77,-0.00000863,-0.00002371,-0.00003953,-0.00004626,-0.00002826,-0.0000
 1046,-0.00006694,-0.00001336,0.00002167,-0.00004924,0.00000757,-0.0000
 2555,0.00000686,0.00002108,0.00002728,-0.00000786,0.00001791,0.0000381
 9,0.00001105,0.00002053,0.00004192,-0.00001853,0.00002101,0.00001653,0
 .00000847,0.00000575,0.00004303,0.00001755,0.00002794,0.00001130,0.000
 04062,0.00001318,-0.00000427,0.00004745,-0.00001473,-0.00004038,0.0000
 5363,-0.00000476,-0.00000668,0.00007566,0.00000666,-0.00001455,0.00004
 692,0.00001931,0.00000976,0.00006354,-0.00001917\\\@


 BOOKS ARE LIGHTHOUSES ERECTED IN THE GREAT SEA OF TIME.
     -- E.P.WHIPPLE
 Job cpu time:       0 days 10 hours 12 minutes  4.9 seconds.
 Elapsed time:       0 days  0 hours 30 minutes 38.4 seconds.
 File lengths (MBytes):  RWF=   1872 Int=      0 D2E=      0 Chk=     48 Scr=     32
 Normal termination of Gaussian 16 at Tue Feb  5 11:26:22 2019.
