 Entering Gaussian System, Link 0=g16
 Input=rxn902loosebasis2.com
 Output=rxn902loosebasis2.log
 Initial command:
 /shared/centos7/gaussian/g16/l1.exe "/scratch/dinius.ab/QMscratch/Gau-423741.inp" -scrdir="/scratch/dinius.ab/QMscratch/"
 Default is to use a total of  20 processors:
                               20 via shared-memory
                                1 via Linda
 Entering Link 1 = /shared/centos7/gaussian/g16/l1.exe PID=    423742.
  
 Copyright (c) 1988,1990,1992,1993,1995,1998,2003,2009,2016,
            Gaussian, Inc.  All Rights Reserved.
  
 This is part of the Gaussian(R) 16 program.  It is based on
 the Gaussian(R) 09 system (copyright 2009, Gaussian, Inc.),
 the Gaussian(R) 03 system (copyright 2003, Gaussian, Inc.),
 the Gaussian(R) 98 system (copyright 1998, Gaussian, Inc.),
 the Gaussian(R) 94 system (copyright 1995, Gaussian, Inc.),
 the Gaussian 92(TM) system (copyright 1992, Gaussian, Inc.),
 the Gaussian 90(TM) system (copyright 1990, Gaussian, Inc.),
 the Gaussian 88(TM) system (copyright 1988, Gaussian, Inc.),
 the Gaussian 86(TM) system (copyright 1986, Carnegie Mellon
 University), and the Gaussian 82(TM) system (copyright 1983,
 Carnegie Mellon University). Gaussian is a federally registered
 trademark of Gaussian, Inc.
  
 This software contains proprietary and confidential information,
 including trade secrets, belonging to Gaussian, Inc.
  
 This software is provided under written license and may be
 used, copied, transmitted, or stored only in accord with that
 written license.
  
 The following legend is applicable only to US Government
 contracts under FAR:
  
                    RESTRICTED RIGHTS LEGEND
  
 Use, reproduction and disclosure by the US Government is
 subject to restrictions as set forth in subparagraphs (a)
 and (c) of the Commercial Computer Software - Restricted
 Rights clause in FAR 52.227-19.
  
 Gaussian, Inc.
 340 Quinnipiac St., Bldg. 40, Wallingford CT 06492
  
  
 ---------------------------------------------------------------
 Warning -- This program may not be used in any manner that
 competes with the business of Gaussian, Inc. or will provide
 assistance to any competitor of Gaussian, Inc.  The licensee
 of this program is prohibited from giving any competitor of
 Gaussian, Inc. access to this program.  By using this program,
 the user acknowledges that Gaussian, Inc. is engaged in the
 business of creating and licensing software in the field of
 computational chemistry and represents and warrants to the
 licensee that it is not a competitor of Gaussian, Inc. and that
 it will not use this program in any manner prohibited above.
 ---------------------------------------------------------------
  

 Cite this work as:
 Gaussian 16, Revision A.03,
 M. J. Frisch, G. W. Trucks, H. B. Schlegel, G. E. Scuseria, 
 M. A. Robb, J. R. Cheeseman, G. Scalmani, V. Barone, 
 G. A. Petersson, H. Nakatsuji, X. Li, M. Caricato, A. V. Marenich, 
 J. Bloino, B. G. Janesko, R. Gomperts, B. Mennucci, H. P. Hratchian, 
 J. V. Ortiz, A. F. Izmaylov, J. L. Sonnenberg, D. Williams-Young, 
 F. Ding, F. Lipparini, F. Egidi, J. Goings, B. Peng, A. Petrone, 
 T. Henderson, D. Ranasinghe, V. G. Zakrzewski, J. Gao, N. Rega, 
 G. Zheng, W. Liang, M. Hada, M. Ehara, K. Toyota, R. Fukuda, 
 J. Hasegawa, M. Ishida, T. Nakajima, Y. Honda, O. Kitao, H. Nakai, 
 T. Vreven, K. Throssell, J. A. Montgomery, Jr., J. E. Peralta, 
 F. Ogliaro, M. J. Bearpark, J. J. Heyd, E. N. Brothers, K. N. Kudin, 
 V. N. Staroverov, T. A. Keith, R. Kobayashi, J. Normand, 
 K. Raghavachari, A. P. Rendell, J. C. Burant, S. S. Iyengar, 
 J. Tomasi, M. Cossi, J. M. Millam, M. Klene, C. Adamo, R. Cammi, 
 J. W. Ochterski, R. L. Martin, K. Morokuma, O. Farkas, 
 J. B. Foresman, and D. J. Fox, Gaussian, Inc., Wallingford CT, 2016.
 
 ******************************************
 Gaussian 16:  EM64L-G16RevA.03 25-Dec-2016
                19-Mar-2019 
 ******************************************
 ----------------------------------------------------------------------
 # m062x/6-31G(d,p) Opt=(TS,Loose,maxcycle=1000,CalcFC,NoEigenTest) Int
 (Grid=SG1) freq
 ----------------------------------------------------------------------
 1/5=1,6=1000,7=-1,10=4,11=1,18=20,26=2,38=1/1,3;
 2/9=110,12=2,17=6,18=5,40=1/2;
 3/5=1,6=6,7=101,11=2,25=1,30=1,71=2,74=-55,75=1,140=1/1,2,3;
 4//1;
 5/5=2,38=5/2;
 8/6=4,10=90,11=11/1;
 11/6=1,8=1,9=11,15=111,16=1/1,2,10;
 10/6=1,13=1/2;
 6/7=2,8=2,9=2,10=2,28=1/1;
 7/10=1,18=20,25=1/1,2,3,16;
 1/5=1,6=1000,7=-1,10=4,11=1,18=20,26=2/3(2);
 2/9=110/2;
 99//99;
 2/9=110/2;
 3/5=1,6=6,7=101,11=2,25=1,30=1,71=1,74=-55,75=1/1,2,3;
 4/5=5,16=3,69=1/1;
 5/5=2,38=5/2;
 7//1,2,3,16;
 1/5=1,6=1000,7=-1,11=1,18=20,26=2/3(-5);
 2/9=110/2;
 6/7=2,8=2,9=2,10=2,19=2,28=1/1;
 99/9=1/99;
 -----
 Title
 -----
 Symbolic Z-matrix:
 Charge =  0 Multiplicity = 2
 C                     2.30378  -1.74195  -0.19928 
 C                     3.07695  -0.74115   0.41018 
 C                     2.5625    0.52909   0.58401 
 C                     1.25381   0.83469   0.1526 
 C                     1.01585  -1.46196  -0.62888 
 C                     0.48293  -0.18189  -0.45747 
 H                     0.39596  -2.21063  -1.10917 
 H                     2.71759  -2.73521  -0.33218 
 H                     4.08331  -0.96518   0.74716 
 H                     3.15795   1.30344   1.05775 
 C                    -0.89461   0.10658  -0.90456 
 C                     0.69084   2.13841   0.31759 
 C                    -0.60376   2.42761  -0.11297 
 H                     1.29272   2.90593   0.79296 
 C                    -1.38607   1.45598  -0.70633 
 H                    -1.00151   3.42609   0.02812 
 H                    -2.4001    1.65397  -1.03404 
 O                    -1.60087  -0.77369  -1.42247 
 H                    -2.65291  -0.84075  -0.40201 
 O                    -3.16612  -1.24707   0.83981 
 O                    -2.08291  -0.60702   1.50475 
 H                    -1.5829   -1.36707   1.83457 
 
 Add virtual bond connecting atoms O20        and H19        Dist= 2.65D+00.
 Add virtual bond connecting atoms H19        and O18        Dist= 2.77D+00.

 GradGradGradGradGradGradGradGradGradGradGradGradGradGradGradGradGradGrad
 Berny optimization.
 Initialization pass.
                           ----------------------------
                           !    Initial Parameters    !
                           ! (Angstroms and Degrees)  !
 --------------------------                            --------------------------
 ! Name  Definition              Value          Derivative Info.                !
 --------------------------------------------------------------------------------
 ! R1    R(1,2)                  1.4039         calculate D2E/DX2 analytically  !
 ! R2    R(1,5)                  1.3863         calculate D2E/DX2 analytically  !
 ! R3    R(1,8)                  1.0842         calculate D2E/DX2 analytically  !
 ! R4    R(2,3)                  1.3814         calculate D2E/DX2 analytically  !
 ! R5    R(2,9)                  1.0847         calculate D2E/DX2 analytically  !
 ! R6    R(3,4)                  1.4114         calculate D2E/DX2 analytically  !
 ! R7    R(3,10)                 1.0856         calculate D2E/DX2 analytically  !
 ! R8    R(4,6)                  1.4142         calculate D2E/DX2 analytically  !
 ! R9    R(4,12)                 1.4296         calculate D2E/DX2 analytically  !
 ! R10   R(5,6)                  1.3971         calculate D2E/DX2 analytically  !
 ! R11   R(5,7)                  1.0842         calculate D2E/DX2 analytically  !
 ! R12   R(6,11)                 1.4767         calculate D2E/DX2 analytically  !
 ! R13   R(11,15)                1.4497         calculate D2E/DX2 analytically  !
 ! R14   R(11,18)                1.2417         calculate D2E/DX2 analytically  !
 ! R15   R(12,13)                1.3946         calculate D2E/DX2 analytically  !
 ! R16   R(12,14)                1.085          calculate D2E/DX2 analytically  !
 ! R17   R(13,15)                1.3814         calculate D2E/DX2 analytically  !
 ! R18   R(13,16)                1.084          calculate D2E/DX2 analytically  !
 ! R19   R(15,17)                1.0839         calculate D2E/DX2 analytically  !
 ! R20   R(18,19)                1.4672         calculate D2E/DX2 analytically  !
 ! R21   R(19,20)                1.4038         calculate D2E/DX2 analytically  !
 ! R22   R(20,21)                1.4231         calculate D2E/DX2 analytically  !
 ! R23   R(21,22)                0.9677         calculate D2E/DX2 analytically  !
 ! A1    A(2,1,5)              120.1476         calculate D2E/DX2 analytically  !
 ! A2    A(2,1,8)              119.743          calculate D2E/DX2 analytically  !
 ! A3    A(5,1,8)              120.1094         calculate D2E/DX2 analytically  !
 ! A4    A(1,2,3)              120.3336         calculate D2E/DX2 analytically  !
 ! A5    A(1,2,9)              119.9084         calculate D2E/DX2 analytically  !
 ! A6    A(3,2,9)              119.758          calculate D2E/DX2 analytically  !
 ! A7    A(2,3,4)              120.3921         calculate D2E/DX2 analytically  !
 ! A8    A(2,3,10)             120.4314         calculate D2E/DX2 analytically  !
 ! A9    A(4,3,10)             119.176          calculate D2E/DX2 analytically  !
 ! A10   A(3,4,6)              118.7926         calculate D2E/DX2 analytically  !
 ! A11   A(3,4,12)             121.8226         calculate D2E/DX2 analytically  !
 ! A12   A(6,4,12)             119.3847         calculate D2E/DX2 analytically  !
 ! A13   A(1,5,6)              120.0937         calculate D2E/DX2 analytically  !
 ! A14   A(1,5,7)              121.939          calculate D2E/DX2 analytically  !
 ! A15   A(6,5,7)              117.9656         calculate D2E/DX2 analytically  !
 ! A16   A(4,6,5)              120.2401         calculate D2E/DX2 analytically  !
 ! A17   A(4,6,11)             119.9129         calculate D2E/DX2 analytically  !
 ! A18   A(5,6,11)             119.8448         calculate D2E/DX2 analytically  !
 ! A19   A(6,11,15)            117.1718         calculate D2E/DX2 analytically  !
 ! A20   A(6,11,18)            121.2224         calculate D2E/DX2 analytically  !
 ! A21   A(15,11,18)           121.605          calculate D2E/DX2 analytically  !
 ! A22   A(4,12,13)            121.2662         calculate D2E/DX2 analytically  !
 ! A23   A(4,12,14)            118.502          calculate D2E/DX2 analytically  !
 ! A24   A(13,12,14)           120.2312         calculate D2E/DX2 analytically  !
 ! A25   A(12,13,15)           120.8282         calculate D2E/DX2 analytically  !
 ! A26   A(12,13,16)           119.4345         calculate D2E/DX2 analytically  !
 ! A27   A(15,13,16)           119.7355         calculate D2E/DX2 analytically  !
 ! A28   A(11,15,13)           121.43           calculate D2E/DX2 analytically  !
 ! A29   A(11,15,17)           116.4764         calculate D2E/DX2 analytically  !
 ! A30   A(13,15,17)           122.0874         calculate D2E/DX2 analytically  !
 ! A31   A(11,18,19)            98.6352         calculate D2E/DX2 analytically  !
 ! A32   A(18,19,20)           152.9556         calculate D2E/DX2 analytically  !
 ! A33   A(19,20,21)            90.2798         calculate D2E/DX2 analytically  !
 ! A34   A(20,21,22)           101.4958         calculate D2E/DX2 analytically  !
 ! D1    D(5,1,2,3)             -0.1281         calculate D2E/DX2 analytically  !
 ! D2    D(5,1,2,9)            179.843          calculate D2E/DX2 analytically  !
 ! D3    D(8,1,2,3)            179.9129         calculate D2E/DX2 analytically  !
 ! D4    D(8,1,2,9)             -0.116          calculate D2E/DX2 analytically  !
 ! D5    D(2,1,5,6)              0.0419         calculate D2E/DX2 analytically  !
 ! D6    D(2,1,5,7)            179.5648         calculate D2E/DX2 analytically  !
 ! D7    D(8,1,5,6)           -179.9993         calculate D2E/DX2 analytically  !
 ! D8    D(8,1,5,7)             -0.4764         calculate D2E/DX2 analytically  !
 ! D9    D(1,2,3,4)              0.0778         calculate D2E/DX2 analytically  !
 ! D10   D(1,2,3,10)           179.8196         calculate D2E/DX2 analytically  !
 ! D11   D(9,2,3,4)           -179.8934         calculate D2E/DX2 analytically  !
 ! D12   D(9,2,3,10)            -0.1515         calculate D2E/DX2 analytically  !
 ! D13   D(2,3,4,6)              0.0558         calculate D2E/DX2 analytically  !
 ! D14   D(2,3,4,12)           179.9772         calculate D2E/DX2 analytically  !
 ! D15   D(10,3,4,6)          -179.6893         calculate D2E/DX2 analytically  !
 ! D16   D(10,3,4,12)            0.2321         calculate D2E/DX2 analytically  !
 ! D17   D(3,4,6,5)             -0.1413         calculate D2E/DX2 analytically  !
 ! D18   D(3,4,6,11)           179.323          calculate D2E/DX2 analytically  !
 ! D19   D(12,4,6,5)           179.9354         calculate D2E/DX2 analytically  !
 ! D20   D(12,4,6,11)           -0.6003         calculate D2E/DX2 analytically  !
 ! D21   D(3,4,12,13)         -179.9946         calculate D2E/DX2 analytically  !
 ! D22   D(3,4,12,14)           -0.29           calculate D2E/DX2 analytically  !
 ! D23   D(6,4,12,13)           -0.0737         calculate D2E/DX2 analytically  !
 ! D24   D(6,4,12,14)          179.6308         calculate D2E/DX2 analytically  !
 ! D25   D(1,5,6,4)              0.093          calculate D2E/DX2 analytically  !
 ! D26   D(1,5,6,11)          -179.3716         calculate D2E/DX2 analytically  !
 ! D27   D(7,5,6,4)           -179.4485         calculate D2E/DX2 analytically  !
 ! D28   D(7,5,6,11)             1.0869         calculate D2E/DX2 analytically  !
 ! D29   D(4,6,11,15)            0.9183         calculate D2E/DX2 analytically  !
 ! D30   D(4,6,11,18)         -178.7707         calculate D2E/DX2 analytically  !
 ! D31   D(5,6,11,15)         -179.6153         calculate D2E/DX2 analytically  !
 ! D32   D(5,6,11,18)            0.6957         calculate D2E/DX2 analytically  !
 ! D33   D(6,11,15,13)          -0.5953         calculate D2E/DX2 analytically  !
 ! D34   D(6,11,15,17)        -179.7061         calculate D2E/DX2 analytically  !
 ! D35   D(18,11,15,13)        179.0924         calculate D2E/DX2 analytically  !
 ! D36   D(18,11,15,17)         -0.0183         calculate D2E/DX2 analytically  !
 ! D37   D(6,11,18,19)         116.0698         calculate D2E/DX2 analytically  !
 ! D38   D(15,11,18,19)        -63.6054         calculate D2E/DX2 analytically  !
 ! D39   D(4,12,13,15)           0.4152         calculate D2E/DX2 analytically  !
 ! D40   D(4,12,13,16)         179.9248         calculate D2E/DX2 analytically  !
 ! D41   D(14,12,13,15)       -179.2843         calculate D2E/DX2 analytically  !
 ! D42   D(14,12,13,16)          0.2253         calculate D2E/DX2 analytically  !
 ! D43   D(12,13,15,11)         -0.0585         calculate D2E/DX2 analytically  !
 ! D44   D(12,13,15,17)        179.0019         calculate D2E/DX2 analytically  !
 ! D45   D(16,13,15,11)       -179.5667         calculate D2E/DX2 analytically  !
 ! D46   D(16,13,15,17)         -0.5062         calculate D2E/DX2 analytically  !
 ! D47   D(11,18,19,20)        -78.5075         calculate D2E/DX2 analytically  !
 ! D48   D(18,19,20,21)         57.2873         calculate D2E/DX2 analytically  !
 ! D49   D(19,20,21,22)       -110.2372         calculate D2E/DX2 analytically  !
 --------------------------------------------------------------------------------
 Trust Radius=3.00D-01 FncErr=1.00D-05 GrdErr=1.00D-04 EigMax=2.50D+02 EigMin=1.00D-04
 Number of steps in this run=    132 maximum allowed number of steps=    132.
 Search for a saddle point of order  1.
 GradGradGradGradGradGradGradGradGradGradGradGradGradGradGradGradGradGrad

                          Input orientation:                          
 ---------------------------------------------------------------------
 Center     Atomic      Atomic             Coordinates (Angstroms)
 Number     Number       Type             X           Y           Z
 ---------------------------------------------------------------------
      1          6           0        2.303780   -1.741950   -0.199280
      2          6           0        3.076950   -0.741150    0.410180
      3          6           0        2.562500    0.529090    0.584010
      4          6           0        1.253810    0.834690    0.152600
      5          6           0        1.015850   -1.461960   -0.628880
      6          6           0        0.482930   -0.181890   -0.457470
      7          1           0        0.395960   -2.210630   -1.109170
      8          1           0        2.717590   -2.735210   -0.332180
      9          1           0        4.083310   -0.965180    0.747160
     10          1           0        3.157950    1.303440    1.057750
     11          6           0       -0.894610    0.106580   -0.904560
     12          6           0        0.690840    2.138410    0.317590
     13          6           0       -0.603760    2.427610   -0.112970
     14          1           0        1.292720    2.905930    0.792960
     15          6           0       -1.386070    1.455980   -0.706330
     16          1           0       -1.001510    3.426090    0.028120
     17          1           0       -2.400100    1.653970   -1.034040
     18          8           0       -1.600870   -0.773690   -1.422470
     19          1           0       -2.652910   -0.840750   -0.402010
     20          8           0       -3.166120   -1.247070    0.839810
     21          8           0       -2.082910   -0.607020    1.504750
     22          1           0       -1.582900   -1.367070    1.834570
 ---------------------------------------------------------------------
                    Distance matrix (angstroms):
                    1          2          3          4          5
     1  C    0.000000
     2  C    1.403864   0.000000
     3  C    2.416216   1.381443   0.000000
     4  C    2.804520   2.423522   1.411444   0.000000
     5  C    1.386259   2.418129   2.797768   2.437609   0.000000
     6  C    2.411627   2.791868   2.432033   1.414170   1.397127
     7  H    2.165026   3.414016   3.881600   3.406163   1.084181
     8  H    1.084189   2.157896   3.393982   3.888682   2.145953
     9  H    2.160057   1.084668   2.138299   3.405746   3.398468
    10  H    3.403547   2.146219   1.085637   2.159808   3.883394
    11  C    3.760875   4.268545   3.787607   2.502687   2.487202
    12  C    4.233902   3.740850   2.482741   1.429630   3.736857
    13  C    5.083942   4.884911   3.757042   2.461400   4.244768
    14  H    4.858968   4.078136   2.702845   2.168320   4.601820
    15  C    4.909058   5.098286   4.256208   2.844772   3.780158
    16  H    6.138835   5.843432   4.626423   3.437633   5.328642
    17  H    5.861364   6.149833   5.339554   3.928154   4.641324
    18  O    4.204761   5.024108   4.801755   3.635510   2.819703
    19  H    5.042027   5.787993   5.481715   4.286858   3.727891
    20  O    5.589671   6.278253   6.003105   4.933737   4.437578
    21  O    4.840954   5.276384   4.870148   3.878213   3.858188
    22  H    4.402654   4.912725   4.726909   3.965311   3.582051
                    6          7          8          9         10
     6  C    0.000000
     7  H    2.132619   0.000000
     8  H    3.395415   2.503770   0.000000
     9  H    3.876521   4.312036   2.482574   0.000000
    10  H    3.414356   4.967174   4.293776   2.469695   0.000000
    11  C    1.476726   2.660244   4.631563   5.353180   4.659010
    12  C    2.455145   4.586583   5.318091   4.617971   2.707701
    13  C    2.847642   4.848208   6.142811   5.849741   4.096926
    14  H    3.428406   5.531859   5.926099   4.772314   2.473292
    15  C    2.497541   4.096577   5.877592   6.155385   4.876819
    16  H    3.931524   5.917682   7.205771   6.756898   4.781934
    17  H    3.466219   4.770611   6.778515   7.215762   5.948981
    18  O    2.371429   2.479977   4.866764   6.087189   5.754331
    19  H    3.204788   3.416468   5.695272   6.834671   6.363532
    20  O    4.016604   4.173174   6.181114   7.255500   6.822497
    21  O    3.258002   3.943214   5.563120   6.222900   5.596095
    22  H    3.305413   3.645968   5.006079   5.783590   5.496429
                   11         12         13         14         15
    11  C    0.000000
    12  C    2.852304   0.000000
    13  C    2.469492   1.394635   0.000000
    14  H    3.937302   1.085045   2.155490   0.000000
    15  C    1.449727   2.414058   1.381358   3.395017   0.000000
    16  H    3.449705   2.146150   1.084008   2.473669   2.137437
    17  H    2.162795   3.408151   2.161880   4.306072   1.083905
    18  O    1.241736   4.093906   3.599631   5.178861   2.351685
    19  H    2.059517   4.535844   3.868428   5.570777   2.640542
    20  O    3.167799   5.158520   4.580038   6.093510   3.586866
    21  O    2.779578   4.079268   3.743512   4.923651   3.103293
    22  H    3.185627   4.445167   4.376211   5.254776   3.803226
                   16         17         18         19         20
    16  H    0.000000
    17  H    2.494924   0.000000
    18  O    4.483480   2.585185   0.000000
    19  H    4.595439   2.585924   1.467182   0.000000
    20  O    5.213713   3.537532   2.791417   1.403780   0.000000
    21  O    4.428977   3.414402   2.971323   2.003812   1.423079
    22  H    5.155158   4.245400   3.310700   2.534605   1.873642
                   21         22
    21  O    0.000000
    22  H    0.967712   0.000000
 Stoichiometry    C10H9O3(2)
 Framework group  C1[X(C10H9O3)]
 Deg. of freedom    60
 Full point group                 C1      NOp   1
 Largest Abelian subgroup         C1      NOp   1
 Largest concise Abelian subgroup C1      NOp   1
                         Standard orientation:                         
 ---------------------------------------------------------------------
 Center     Atomic      Atomic             Coordinates (Angstroms)
 Number     Number       Type             X           Y           Z
 ---------------------------------------------------------------------
      1          6           0        2.312273   -1.730829   -0.198709
      2          6           0        3.080514   -0.723683    0.406515
      3          6           0        2.558187    0.543504    0.579132
      4          6           0        1.246321    0.839573    0.150730
      5          6           0        1.021341   -1.460229   -0.625305
      6          6           0        0.480472   -0.183339   -0.455076
      7          1           0        0.405072   -2.213971   -1.102310
      8          1           0        2.732251   -2.721620   -0.330693
      9          1           0        4.089258   -0.940373    0.741159
     10          1           0        3.149829    1.322751    1.049602
     11          6           0       -0.900171    0.095115   -0.898931
     12          6           0        0.675230    2.139901    0.314574
     13          6           0       -0.622435    2.419666   -0.112984
     14          1           0        1.273352    2.912364    0.786670
     15          6           0       -1.399964    1.441662   -0.702142
     16          1           0       -1.026365    3.415799    0.027135
     17          1           0       -2.416180    1.632282   -1.027441
     18          8           0       -1.602045   -0.790872   -1.413042
     19          1           0       -2.650791   -0.862717   -0.389522
     20          8           0       -3.157872   -1.269800    0.854564
     21          8           0       -2.077068   -0.621237    1.515155
     22          1           0       -1.571148   -1.377284    1.845163
 ---------------------------------------------------------------------
 Rotational constants (GHZ):           1.1687598           0.6515800           0.5213912
 Standard basis: 6-31G(d,p) (6D, 7F)
 There are   240 symmetry adapted cartesian basis functions of A   symmetry.
 There are   240 symmetry adapted basis functions of A   symmetry.
   240 basis functions,   427 primitive gaussians,   240 cartesian basis functions
    47 alpha electrons       46 beta electrons
       nuclear repulsion energy       754.0006373365 Hartrees.
 NAtoms=   22 NActive=   22 NUniq=   22 SFac= 1.00D+00 NAtFMM=   60 NAOKFM=F Big=F
 Integral buffers will be    131072 words long.
 Raffenetti 2 integral format.
 Two-electron integral symmetry is turned on.
 One-electron integrals computed using PRISM.
 NBasis=   240 RedAO= T EigKep=  3.07D-04  NBF=   240
 NBsUse=   240 1.00D-06 EigRej= -1.00D+00 NBFU=   240
 ExpMin= 1.61D-01 ExpMax= 5.48D+03 ExpMxC= 8.25D+02 IAcc=1 IRadAn=         1 AccDes= 0.00D+00
 Harris functional with IExCor= 1009 and IRadAn=       1 diagonalized for initial guess.
 HarFok:  IExCor= 1009 AccDes= 0.00D+00 IRadAn=         1 IDoV= 1 UseB2=F ITyADJ=14
 ICtDFT=  3500011 ScaDFX=  1.000000  1.000000  1.000000  1.000000
 FoFCou: FMM=F IPFlag=           0 FMFlag=      100000 FMFlg1=           0
         NFxFlg=           0 DoJE=T BraDBF=F KetDBF=T FulRan=T
         wScrn=  0.000000 ICntrl=       500 IOpCl=  0 I1Cent=   200000004 NGrid=           0
         NMat0=    1 NMatS0=      1 NMatT0=    0 NMatD0=    1 NMtDS0=    0 NMtDT0=    0
 Petite list used in FoFCou.
 Initial guess <Sx>= 0.0000 <Sy>= 0.0000 <Sz>= 0.5000 <S**2>= 0.7500 S= 0.5000
 Requested convergence on RMS density matrix=1.00D-08 within 128 cycles.
 Requested convergence on MAX density matrix=1.00D-06.
 Requested convergence on             energy=1.00D-06.
 No special actions if energy rises.
 SCF Done:  E(UM062X) =  -611.720835735     A.U. after   20 cycles
            NFock= 20  Conv=0.48D-08     -V/T= 2.0087
 <Sx>= 0.0000 <Sy>= 0.0000 <Sz>= 0.5000 <S**2>= 0.7818 S= 0.5158
 <L.S>= 0.000000000000E+00
 Annihilation of the first spin contaminant:
 S**2 before annihilation     0.7818,   after     0.7508
 DoSCS=F DFT=T ScalE2(SS,OS)=  1.000000  1.000000
 Range of M.O.s used for correlation:     1   240
 NBasis=   240 NAE=    47 NBE=    46 NFC=     0 NFV=     0
 NROrb=    240 NOA=    47 NOB=    46 NVA=   193 NVB=   194

 **** Warning!!: The largest alpha MO coefficient is  0.10470835D+02


 **** Warning!!: The largest beta MO coefficient is  0.10274768D+02

 Symmetrizing basis deriv contribution to polar:
 IMax=3 JMax=2 DiffMx= 0.00D+00
 G2DrvN: will do    23 centers at a time, making    1 passes.
 Calling FoFCou, ICntrl=  3107 FMM=F I1Cent=   0 AccDes= 0.00D+00.
 End of G2Drv F.D. properties file   721 does not exist.
 End of G2Drv F.D. properties file   722 does not exist.
 End of G2Drv F.D. properties file   788 does not exist.
          IDoAtm=1111111111111111111111
          Differentiating once with respect to nuclear coordinates.
 Keep R1 and R2 ints in memory in canonical form, NReq=857760080.
          There are    69 degrees of freedom in the 1st order CPHF.  IDoFFX=6 NUNeed=     0.
     63 vectors produced by pass  0 Test12= 2.61D-14 1.45D-09 XBig12= 2.95D-01 1.42D-01.
 AX will form    63 AO Fock derivatives at one time.
     63 vectors produced by pass  1 Test12= 2.61D-14 1.45D-09 XBig12= 3.34D-02 3.68D-02.
     63 vectors produced by pass  2 Test12= 2.61D-14 1.45D-09 XBig12= 1.21D-03 7.33D-03.
     63 vectors produced by pass  3 Test12= 2.61D-14 1.45D-09 XBig12= 1.42D-05 7.02D-04.
     63 vectors produced by pass  4 Test12= 2.61D-14 1.45D-09 XBig12= 1.30D-07 4.10D-05.
     63 vectors produced by pass  5 Test12= 2.61D-14 1.45D-09 XBig12= 1.01D-09 3.58D-06.
     63 vectors produced by pass  6 Test12= 2.61D-14 1.45D-09 XBig12= 7.72D-12 2.72D-07.
     41 vectors produced by pass  7 Test12= 2.61D-14 1.45D-09 XBig12= 4.60D-14 1.86D-08.
 InvSVY:  IOpt=1 It=  1 EMax= 8.33D-16
 Solved reduced A of dimension   482 with    69 vectors.
 End of Minotr F.D. properties file   721 does not exist.
 End of Minotr F.D. properties file   722 does not exist.
 End of Minotr F.D. properties file   788 does not exist.

 **********************************************************************

            Population analysis using the SCF density.

 **********************************************************************

 Orbital symmetries:
 Alpha Orbitals:
       Occupied  (A) (A) (A) (A) (A) (A) (A) (A) (A) (A) (A) (A)
                 (A) (A) (A) (A) (A) (A) (A) (A) (A) (A) (A) (A)
                 (A) (A) (A) (A) (A) (A) (A) (A) (A) (A) (A) (A)
                 (A) (A) (A) (A) (A) (A) (A) (A) (A) (A) (A)
       Virtual   (A) (A) (A) (A) (A) (A) (A) (A) (A) (A) (A) (A)
                 (A) (A) (A) (A) (A) (A) (A) (A) (A) (A) (A) (A)
                 (A) (A) (A) (A) (A) (A) (A) (A) (A) (A) (A) (A)
                 (A) (A) (A) (A) (A) (A) (A) (A) (A) (A) (A) (A)
                 (A) (A) (A) (A) (A) (A) (A) (A) (A) (A) (A) (A)
                 (A) (A) (A) (A) (A) (A) (A) (A) (A) (A) (A) (A)
                 (A) (A) (A) (A) (A) (A) (A) (A) (A) (A) (A) (A)
                 (A) (A) (A) (A) (A) (A) (A) (A) (A) (A) (A) (A)
                 (A) (A) (A) (A) (A) (A) (A) (A) (A) (A) (A) (A)
                 (A) (A) (A) (A) (A) (A) (A) (A) (A) (A) (A) (A)
                 (A) (A) (A) (A) (A) (A) (A) (A) (A) (A) (A) (A)
                 (A) (A) (A) (A) (A) (A) (A) (A) (A) (A) (A) (A)
                 (A) (A) (A) (A) (A) (A) (A) (A) (A) (A) (A) (A)
                 (A) (A) (A) (A) (A) (A) (A) (A) (A) (A) (A) (A)
                 (A) (A) (A) (A) (A) (A) (A) (A) (A) (A) (A) (A)
                 (A) (A) (A) (A) (A) (A) (A) (A) (A) (A) (A) (A)
                 (A)
 Beta  Orbitals:
       Occupied  (A) (A) (A) (A) (A) (A) (A) (A) (A) (A) (A) (A)
                 (A) (A) (A) (A) (A) (A) (A) (A) (A) (A) (A) (A)
                 (A) (A) (A) (A) (A) (A) (A) (A) (A) (A) (A) (A)
                 (A) (A) (A) (A) (A) (A) (A) (A) (A) (A)
       Virtual   (A) (A) (A) (A) (A) (A) (A) (A) (A) (A) (A) (A)
                 (A) (A) (A) (A) (A) (A) (A) (A) (A) (A) (A) (A)
                 (A) (A) (A) (A) (A) (A) (A) (A) (A) (A) (A) (A)
                 (A) (A) (A) (A) (A) (A) (A) (A) (A) (A) (A) (A)
                 (A) (A) (A) (A) (A) (A) (A) (A) (A) (A) (A) (A)
                 (A) (A) (A) (A) (A) (A) (A) (A) (A) (A) (A) (A)
                 (A) (A) (A) (A) (A) (A) (A) (A) (A) (A) (A) (A)
                 (A) (A) (A) (A) (A) (A) (A) (A) (A) (A) (A) (A)
                 (A) (A) (A) (A) (A) (A) (A) (A) (A) (A) (A) (A)
                 (A) (A) (A) (A) (A) (A) (A) (A) (A) (A) (A) (A)
                 (A) (A) (A) (A) (A) (A) (A) (A) (A) (A) (A) (A)
                 (A) (A) (A) (A) (A) (A) (A) (A) (A) (A) (A) (A)
                 (A) (A) (A) (A) (A) (A) (A) (A) (A) (A) (A) (A)
                 (A) (A) (A) (A) (A) (A) (A) (A) (A) (A) (A) (A)
                 (A) (A) (A) (A) (A) (A) (A) (A) (A) (A) (A) (A)
                 (A) (A) (A) (A) (A) (A) (A) (A) (A) (A) (A) (A)
                 (A) (A)
 The electronic state is 2-A.
 Alpha  occ. eigenvalues --  -19.66257 -19.66052 -19.64304 -10.65054 -10.59833
 Alpha  occ. eigenvalues --  -10.58644 -10.58476 -10.58247 -10.58060 -10.58000
 Alpha  occ. eigenvalues --  -10.57754 -10.57666 -10.57310  -1.19706  -1.18494
 Alpha  occ. eigenvalues --   -1.00007  -0.94652  -0.91319  -0.88196  -0.86515
 Alpha  occ. eigenvalues --   -0.82426  -0.73259  -0.72268  -0.68643  -0.61844
 Alpha  occ. eigenvalues --   -0.60793  -0.59380  -0.56693  -0.54886  -0.54446
 Alpha  occ. eigenvalues --   -0.53651  -0.51535  -0.51139  -0.48912  -0.47978
 Alpha  occ. eigenvalues --   -0.47044  -0.45931  -0.44386  -0.43397  -0.41931
 Alpha  occ. eigenvalues --   -0.41505  -0.36609  -0.34610  -0.32671  -0.31745
 Alpha  occ. eigenvalues --   -0.29669  -0.26143
 Alpha virt. eigenvalues --   -0.02679  -0.00012   0.05116   0.10824   0.12267
 Alpha virt. eigenvalues --    0.13887   0.14376   0.15053   0.16874   0.19797
 Alpha virt. eigenvalues --    0.20215   0.20784   0.21937   0.22729   0.23756
 Alpha virt. eigenvalues --    0.27142   0.27900   0.30824   0.33006   0.33478
 Alpha virt. eigenvalues --    0.34483   0.38862   0.39761   0.50299   0.51002
 Alpha virt. eigenvalues --    0.52617   0.53450   0.54505   0.56446   0.56938
 Alpha virt. eigenvalues --    0.57889   0.60111   0.61130   0.61503   0.62464
 Alpha virt. eigenvalues --    0.63088   0.63643   0.64148   0.64776   0.65807
 Alpha virt. eigenvalues --    0.66437   0.68996   0.70998   0.71867   0.72539
 Alpha virt. eigenvalues --    0.75680   0.79326   0.83161   0.84573   0.85823
 Alpha virt. eigenvalues --    0.86413   0.87228   0.87491   0.87777   0.88697
 Alpha virt. eigenvalues --    0.90200   0.91172   0.92385   0.94724   0.95533
 Alpha virt. eigenvalues --    0.96460   0.97546   1.01660   1.02398   1.03877
 Alpha virt. eigenvalues --    1.04902   1.07162   1.09046   1.09747   1.12453
 Alpha virt. eigenvalues --    1.14636   1.16469   1.18871   1.20222   1.20504
 Alpha virt. eigenvalues --    1.22818   1.24970   1.25669   1.27941   1.29416
 Alpha virt. eigenvalues --    1.33706   1.35141   1.37577   1.38538   1.38855
 Alpha virt. eigenvalues --    1.40133   1.43384   1.44019   1.45053   1.46308
 Alpha virt. eigenvalues --    1.47196   1.49363   1.49647   1.53162   1.57071
 Alpha virt. eigenvalues --    1.58353   1.63948   1.66069   1.72608   1.74520
 Alpha virt. eigenvalues --    1.76961   1.79605   1.81980   1.82815   1.85964
 Alpha virt. eigenvalues --    1.87334   1.88599   1.89431   1.91277   1.93097
 Alpha virt. eigenvalues --    1.93697   1.97550   1.98259   1.99296   2.01631
 Alpha virt. eigenvalues --    2.01799   2.03027   2.03518   2.04505   2.07292
 Alpha virt. eigenvalues --    2.09886   2.10777   2.14536   2.18794   2.22839
 Alpha virt. eigenvalues --    2.23924   2.27258   2.27877   2.28992   2.29567
 Alpha virt. eigenvalues --    2.31586   2.33867   2.36412   2.38760   2.39222
 Alpha virt. eigenvalues --    2.39467   2.42508   2.43392   2.44960   2.46464
 Alpha virt. eigenvalues --    2.46781   2.48640   2.50274   2.51830   2.54430
 Alpha virt. eigenvalues --    2.56864   2.57195   2.57935   2.60076   2.60992
 Alpha virt. eigenvalues --    2.62549   2.63800   2.65410   2.67410   2.71576
 Alpha virt. eigenvalues --    2.73210   2.74668   2.76307   2.77949   2.81004
 Alpha virt. eigenvalues --    2.84582   2.89909   2.96873   3.01393   3.05133
 Alpha virt. eigenvalues --    3.06182   3.08663   3.13551   3.16567   3.21421
 Alpha virt. eigenvalues --    3.22157   3.23657   3.30845   3.33821   3.36241
 Alpha virt. eigenvalues --    3.38542   3.46080   3.47227   3.63284   3.73781
 Alpha virt. eigenvalues --    3.84610   3.86260   4.10413   4.13487   4.15234
 Alpha virt. eigenvalues --    4.17289   4.23483   4.31101   4.41547   4.44721
 Alpha virt. eigenvalues --    4.58669   4.68356   4.92225
  Beta  occ. eigenvalues --  -19.65914 -19.65865 -19.64105 -10.65077 -10.59541
  Beta  occ. eigenvalues --  -10.58721 -10.58383 -10.58214 -10.57991 -10.57940
  Beta  occ. eigenvalues --  -10.57736 -10.57651 -10.57335  -1.19005  -1.17677
  Beta  occ. eigenvalues --   -0.99701  -0.94178  -0.90650  -0.87824  -0.86322
  Beta  occ. eigenvalues --   -0.81458  -0.73052  -0.71967  -0.68309  -0.61443
  Beta  occ. eigenvalues --   -0.60468  -0.58987  -0.55640  -0.54615  -0.54137
  Beta  occ. eigenvalues --   -0.52606  -0.51276  -0.50874  -0.48630  -0.47170
  Beta  occ. eigenvalues --   -0.46538  -0.45479  -0.43136  -0.42514  -0.41769
  Beta  occ. eigenvalues --   -0.39237  -0.35819  -0.33105  -0.31968  -0.31117
  Beta  occ. eigenvalues --   -0.27649
  Beta virt. eigenvalues --   -0.12079  -0.01227   0.01328   0.06548   0.11609
  Beta virt. eigenvalues --    0.12536   0.14100   0.14689   0.15838   0.17093
  Beta virt. eigenvalues --    0.19902   0.20468   0.21027   0.22061   0.22830
  Beta virt. eigenvalues --    0.24549   0.27509   0.28330   0.31200   0.33350
  Beta virt. eigenvalues --    0.33687   0.34688   0.39106   0.40068   0.50553
  Beta virt. eigenvalues --    0.51469   0.53310   0.54099   0.55012   0.56689
  Beta virt. eigenvalues --    0.57463   0.58073   0.60913   0.61403   0.62183
  Beta virt. eigenvalues --    0.63301   0.63473   0.63903   0.64468   0.65010
  Beta virt. eigenvalues --    0.66496   0.67014   0.69228   0.71060   0.72128
  Beta virt. eigenvalues --    0.72880   0.76095   0.79711   0.83586   0.85161
  Beta virt. eigenvalues --    0.85932   0.86676   0.87380   0.87876   0.88086
  Beta virt. eigenvalues --    0.88866   0.90631   0.91583   0.92764   0.95250
  Beta virt. eigenvalues --    0.95932   0.96695   0.98137   1.02028   1.02745
  Beta virt. eigenvalues --    1.04147   1.05290   1.07443   1.09172   1.09956
  Beta virt. eigenvalues --    1.12613   1.14910   1.16969   1.19498   1.20574
  Beta virt. eigenvalues --    1.21174   1.23491   1.25521   1.26556   1.28415
  Beta virt. eigenvalues --    1.29724   1.34143   1.35599   1.38374   1.39143
  Beta virt. eigenvalues --    1.39502   1.40593   1.44170   1.44666   1.45821
  Beta virt. eigenvalues --    1.46592   1.47630   1.49559   1.49797   1.53529
  Beta virt. eigenvalues --    1.57310   1.58516   1.64356   1.66352   1.73055
  Beta virt. eigenvalues --    1.74981   1.77361   1.80126   1.82418   1.83354
  Beta virt. eigenvalues --    1.86659   1.88049   1.89154   1.90049   1.91647
  Beta virt. eigenvalues --    1.93512   1.94170   1.98223   1.98762   1.99885
  Beta virt. eigenvalues --    2.02122   2.02388   2.03338   2.03943   2.05057
  Beta virt. eigenvalues --    2.07801   2.10068   2.11011   2.14827   2.19379
  Beta virt. eigenvalues --    2.23094   2.24531   2.27842   2.28459   2.29746
  Beta virt. eigenvalues --    2.30368   2.32019   2.34635   2.36887   2.39011
  Beta virt. eigenvalues --    2.39691   2.39819   2.42976   2.43930   2.45288
  Beta virt. eigenvalues --    2.46695   2.47126   2.49439   2.50684   2.52242
  Beta virt. eigenvalues --    2.54914   2.57252   2.58028   2.58451   2.60443
  Beta virt. eigenvalues --    2.61378   2.63018   2.64343   2.66001   2.68099
  Beta virt. eigenvalues --    2.71963   2.73691   2.75003   2.76800   2.78547
  Beta virt. eigenvalues --    2.81597   2.84994   2.89961   2.97741   3.01802
  Beta virt. eigenvalues --    3.05483   3.06895   3.09134   3.14367   3.16979
  Beta virt. eigenvalues --    3.21592   3.22459   3.24404   3.31321   3.33391
  Beta virt. eigenvalues --    3.37488   3.39483   3.46267   3.47245   3.63310
  Beta virt. eigenvalues --    3.74860   3.85086   3.86658   4.11158   4.14056
  Beta virt. eigenvalues --    4.15584   4.17644   4.24166   4.32457   4.42107
  Beta virt. eigenvalues --    4.45301   4.59547   4.68778   4.92829
          Condensed to atoms (all electrons):
               1          2          3          4          5          6
     1  C    4.867162   0.522493  -0.033868  -0.034244   0.512613  -0.027552
     2  C    0.522493   4.841998   0.534031  -0.025440  -0.031897  -0.038123
     3  C   -0.033868   0.534031   4.952333   0.499452  -0.057769  -0.032574
     4  C   -0.034244  -0.025440   0.499452   4.730291  -0.058909   0.515523
     5  C    0.512613  -0.031897  -0.057769  -0.058909   4.966487   0.486644
     6  C   -0.027552  -0.038123  -0.032574   0.515523   0.486644   5.006499
     7  H   -0.034817   0.003428   0.000486   0.004121   0.376109  -0.034809
     8  H    0.377839  -0.035997   0.003568   0.001055  -0.031410   0.002459
     9  H   -0.035007   0.377016  -0.031037   0.002560   0.003369   0.000967
    10  H    0.003839  -0.035338   0.374696  -0.038909   0.000533   0.003811
    11  C    0.006622  -0.000358   0.008723  -0.014020  -0.059711   0.338031
    12  C   -0.000452   0.007154  -0.075806   0.442864   0.012604  -0.039187
    13  C    0.000066  -0.000311   0.007157  -0.017488  -0.001953  -0.024793
    14  H    0.000013   0.000181  -0.005235  -0.036257  -0.000166   0.003676
    15  C   -0.000232   0.000023  -0.000777  -0.036279   0.012234  -0.082108
    16  H   -0.000000   0.000002  -0.000176   0.002291   0.000016   0.000663
    17  H    0.000001  -0.000000   0.000006   0.000402  -0.000141   0.005093
    18  O    0.000785  -0.000010  -0.000059   0.004238   0.000864  -0.090821
    19  H    0.000010  -0.000000   0.000004   0.000114  -0.000330   0.001734
    20  O    0.000001  -0.000000  -0.000000   0.000013   0.000189  -0.000688
    21  O   -0.000025   0.000004  -0.000008  -0.001623  -0.000322   0.004872
    22  H    0.000026  -0.000004  -0.000017   0.000199   0.000527   0.000879
               7          8          9         10         11         12
     1  C   -0.034817   0.377839  -0.035007   0.003839   0.006622  -0.000452
     2  C    0.003428  -0.035997   0.377016  -0.035338  -0.000358   0.007154
     3  C    0.000486   0.003568  -0.031037   0.374696   0.008723  -0.075806
     4  C    0.004121   0.001055   0.002560  -0.038909  -0.014020   0.442864
     5  C    0.376109  -0.031410   0.003369   0.000533  -0.059711   0.012604
     6  C   -0.034809   0.002459   0.000967   0.003811   0.338031  -0.039187
     7  H    0.521244  -0.003612  -0.000138   0.000016  -0.008619  -0.000153
     8  H   -0.003612   0.551103  -0.004312  -0.000156  -0.000160   0.000011
     9  H   -0.000138  -0.004312   0.554988  -0.004478   0.000011  -0.000175
    10  H    0.000016  -0.000156  -0.004478   0.562868  -0.000134  -0.005858
    11  C   -0.008619  -0.000160   0.000011  -0.000134   4.618144  -0.047019
    12  C   -0.000153   0.000011  -0.000175  -0.005858  -0.047019   5.006963
    13  C   -0.000031  -0.000000   0.000003   0.000215  -0.004543   0.490802
    14  H    0.000002  -0.000000  -0.000009   0.004727   0.000560   0.373925
    15  C    0.000561   0.000002  -0.000000   0.000020   0.418245  -0.029298
    16  H    0.000000   0.000000  -0.000000  -0.000005   0.002232  -0.031144
    17  H   -0.000008  -0.000000   0.000000  -0.000000  -0.028127   0.003718
    18  O    0.010829   0.000001  -0.000000   0.000000   0.396203  -0.000068
    19  H   -0.000106  -0.000000   0.000000  -0.000000  -0.031111  -0.000019
    20  O    0.000030  -0.000000   0.000000   0.000000  -0.005385   0.000001
    21  O   -0.000017  -0.000000   0.000000   0.000000   0.017634   0.000252
    22  H    0.000058   0.000000  -0.000000  -0.000000  -0.000867  -0.000023
              13         14         15         16         17         18
     1  C    0.000066   0.000013  -0.000232  -0.000000   0.000001   0.000785
     2  C   -0.000311   0.000181   0.000023   0.000002  -0.000000  -0.000010
     3  C    0.007157  -0.005235  -0.000777  -0.000176   0.000006  -0.000059
     4  C   -0.017488  -0.036257  -0.036279   0.002291   0.000402   0.004238
     5  C   -0.001953  -0.000166   0.012234   0.000016  -0.000141   0.000864
     6  C   -0.024793   0.003676  -0.082108   0.000663   0.005093  -0.090821
     7  H   -0.000031   0.000002   0.000561   0.000000  -0.000008   0.010829
     8  H   -0.000000  -0.000000   0.000002   0.000000  -0.000000   0.000001
     9  H    0.000003  -0.000009  -0.000000  -0.000000   0.000000  -0.000000
    10  H    0.000215   0.004727   0.000020  -0.000005  -0.000000   0.000000
    11  C   -0.004543   0.000560   0.418245   0.002232  -0.028127   0.396203
    12  C    0.490802   0.373925  -0.029298  -0.031144   0.003718  -0.000068
    13  C    4.887922  -0.033939   0.468221   0.373749  -0.028716   0.005795
    14  H   -0.033939   0.548026   0.003731  -0.003866  -0.000136   0.000002
    15  C    0.468221   0.003731   5.090118  -0.025259   0.366424  -0.081597
    16  H    0.373749  -0.003866  -0.025259   0.537728  -0.004397  -0.000066
    17  H   -0.028716  -0.000136   0.366424  -0.004397   0.527483  -0.000207
    18  O    0.005795   0.000002  -0.081597  -0.000066  -0.000207   8.270405
    19  H    0.000519  -0.000000  -0.007426  -0.000007   0.001267   0.077551
    20  O    0.000032   0.000000   0.000958   0.000000  -0.000052  -0.020143
    21  O   -0.001481   0.000002   0.002957  -0.000007   0.000118  -0.004892
    22  H    0.000051  -0.000000   0.000001   0.000000   0.000001   0.000211
              19         20         21         22
     1  C    0.000010   0.000001  -0.000025   0.000026
     2  C   -0.000000  -0.000000   0.000004  -0.000004
     3  C    0.000004  -0.000000  -0.000008  -0.000017
     4  C    0.000114   0.000013  -0.001623   0.000199
     5  C   -0.000330   0.000189  -0.000322   0.000527
     6  C    0.001734  -0.000688   0.004872   0.000879
     7  H   -0.000106   0.000030  -0.000017   0.000058
     8  H   -0.000000  -0.000000  -0.000000   0.000000
     9  H    0.000000   0.000000   0.000000  -0.000000
    10  H   -0.000000   0.000000   0.000000  -0.000000
    11  C   -0.031111  -0.005385   0.017634  -0.000867
    12  C   -0.000019   0.000001   0.000252  -0.000023
    13  C    0.000519   0.000032  -0.001481   0.000051
    14  H   -0.000000   0.000000   0.000002  -0.000000
    15  C   -0.007426   0.000958   0.002957   0.000001
    16  H   -0.000007   0.000000  -0.000007   0.000000
    17  H    0.001267  -0.000052   0.000118   0.000001
    18  O    0.077551  -0.020143  -0.004892   0.000211
    19  H    0.438368   0.183195  -0.047098   0.002750
    20  O    0.183195   8.251742   0.033285  -0.029809
    21  O   -0.047098   0.033285   8.095462   0.276021
    22  H    0.002750  -0.029809   0.276021   0.404536
          Atomic-Atomic Spin Densities.
               1          2          3          4          5          6
     1  C    0.104765  -0.010027  -0.004655   0.000080   0.014588  -0.004419
     2  C   -0.010027  -0.050213   0.008423   0.002173   0.000003   0.000610
     3  C   -0.004655   0.008423   0.106197  -0.002952  -0.000677   0.002890
     4  C    0.000080   0.002173  -0.002952  -0.106219   0.001610   0.003858
     5  C    0.014588   0.000003  -0.000677   0.001610  -0.035461  -0.015001
     6  C   -0.004419   0.000610   0.002890   0.003858  -0.015001   0.088650
     7  H   -0.000299  -0.000010   0.000002  -0.000060   0.000722   0.000054
     8  H    0.000092   0.000189   0.000004  -0.000007   0.000186   0.000028
     9  H   -0.000226   0.000303  -0.000173  -0.000044  -0.000023   0.000003
    10  H    0.000027   0.000164   0.000140   0.000386  -0.000009   0.000046
    11  C   -0.000221  -0.000006   0.000125   0.000930  -0.000354   0.024011
    12  C    0.000140  -0.000073  -0.010422  -0.006188   0.000372  -0.008908
    13  C    0.000001   0.000003  -0.000072  -0.000124   0.000070  -0.001148
    14  H   -0.000001  -0.000006  -0.000418   0.000345   0.000007   0.000105
    15  C   -0.000021   0.000005   0.000130  -0.000191  -0.000452   0.003971
    16  H   -0.000000   0.000000  -0.000002  -0.000071   0.000000   0.000015
    17  H   -0.000000   0.000000   0.000000  -0.000019   0.000001  -0.000013
    18  O    0.000012  -0.000001  -0.000004  -0.000079   0.000791  -0.003254
    19  H   -0.000002   0.000000   0.000000  -0.000025  -0.000081   0.000462
    20  O   -0.000001   0.000000   0.000000   0.000002  -0.000053   0.000261
    21  O    0.000016  -0.000002  -0.000011   0.000044   0.000307  -0.002504
    22  H   -0.000010   0.000001   0.000004   0.000009  -0.000080   0.000130
               7          8          9         10         11         12
     1  C   -0.000299   0.000092  -0.000226   0.000027  -0.000221   0.000140
     2  C   -0.000010   0.000189   0.000303   0.000164  -0.000006  -0.000073
     3  C    0.000002   0.000004  -0.000173   0.000140   0.000125  -0.010422
     4  C   -0.000060  -0.000007  -0.000044   0.000386   0.000930  -0.006188
     5  C    0.000722   0.000186  -0.000023  -0.000009  -0.000354   0.000372
     6  C    0.000054   0.000028   0.000003   0.000046   0.024011  -0.008908
     7  H    0.000607  -0.000015  -0.000001  -0.000000  -0.000017  -0.000002
     8  H   -0.000015  -0.005230   0.000009   0.000002   0.000001   0.000000
     9  H   -0.000001   0.000009   0.001732  -0.000022   0.000000  -0.000002
    10  H   -0.000000   0.000002  -0.000022  -0.004884   0.000001  -0.000272
    11  C   -0.000017   0.000001   0.000000   0.000001  -0.022968  -0.003758
    12  C   -0.000002   0.000000  -0.000002  -0.000272  -0.003758   0.479181
    13  C    0.000001   0.000000   0.000000  -0.000009  -0.000747   0.020887
    14  H   -0.000000  -0.000000  -0.000000  -0.000082  -0.000044   0.000725
    15  C   -0.000007  -0.000000  -0.000000  -0.000000   0.039169  -0.019548
    16  H   -0.000000  -0.000000  -0.000000  -0.000000  -0.000043  -0.001005
    17  H    0.000000   0.000000  -0.000000  -0.000000   0.000283   0.000059
    18  O   -0.000402  -0.000000  -0.000000  -0.000000  -0.045281   0.000112
    19  H   -0.000007  -0.000000   0.000000  -0.000000   0.003701  -0.000009
    20  O    0.000001  -0.000000   0.000000  -0.000000   0.002531  -0.000008
    21  O   -0.000002   0.000000  -0.000000   0.000000  -0.006503   0.000345
    22  H    0.000001  -0.000000   0.000000  -0.000000   0.000157  -0.000020
              13         14         15         16         17         18
     1  C    0.000001  -0.000001  -0.000021  -0.000000  -0.000000   0.000012
     2  C    0.000003  -0.000006   0.000005   0.000000   0.000000  -0.000001
     3  C   -0.000072  -0.000418   0.000130  -0.000002   0.000000  -0.000004
     4  C   -0.000124   0.000345  -0.000191  -0.000071  -0.000019  -0.000079
     5  C    0.000070   0.000007  -0.000452   0.000000   0.000001   0.000791
     6  C   -0.001148   0.000105   0.003971   0.000015  -0.000013  -0.003254
     7  H    0.000001  -0.000000  -0.000007  -0.000000   0.000000  -0.000402
     8  H    0.000000  -0.000000  -0.000000  -0.000000   0.000000  -0.000000
     9  H    0.000000  -0.000000  -0.000000  -0.000000  -0.000000  -0.000000
    10  H   -0.000009  -0.000082  -0.000000  -0.000000  -0.000000  -0.000000
    11  C   -0.000747  -0.000044   0.039169  -0.000043   0.000283  -0.045281
    12  C    0.020887   0.000725  -0.019548  -0.001005   0.000059   0.000112
    13  C   -0.166024   0.000113  -0.022539   0.001408   0.000527   0.000035
    14  H    0.000113  -0.020875   0.000110  -0.000046   0.000006   0.000000
    15  C   -0.022539   0.000110   0.390278  -0.000930  -0.000188  -0.009986
    16  H    0.001408  -0.000046  -0.000930   0.004911  -0.000013   0.000000
    17  H    0.000527   0.000006  -0.000188  -0.000013  -0.018237  -0.000137
    18  O    0.000035   0.000000  -0.009986   0.000000  -0.000137   0.257122
    19  H   -0.000016  -0.000000   0.001063  -0.000000   0.000093   0.002425
    20  O   -0.000012  -0.000000   0.001120   0.000000  -0.000002  -0.004586
    21  O    0.000243  -0.000000  -0.005398   0.000000  -0.000024   0.003627
    22  H   -0.000010   0.000000   0.000111  -0.000000   0.000001  -0.000131
              19         20         21         22
     1  C   -0.000002  -0.000001   0.000016  -0.000010
     2  C    0.000000   0.000000  -0.000002   0.000001
     3  C    0.000000   0.000000  -0.000011   0.000004
     4  C   -0.000025   0.000002   0.000044   0.000009
     5  C   -0.000081  -0.000053   0.000307  -0.000080
     6  C    0.000462   0.000261  -0.002504   0.000130
     7  H   -0.000007   0.000001  -0.000002   0.000001
     8  H   -0.000000  -0.000000   0.000000  -0.000000
     9  H    0.000000   0.000000  -0.000000   0.000000
    10  H   -0.000000  -0.000000   0.000000  -0.000000
    11  C    0.003701   0.002531  -0.006503   0.000157
    12  C   -0.000009  -0.000008   0.000345  -0.000020
    13  C   -0.000016  -0.000012   0.000243  -0.000010
    14  H   -0.000000  -0.000000  -0.000000   0.000000
    15  C    0.001063   0.001120  -0.005398   0.000111
    16  H   -0.000000   0.000000   0.000000  -0.000000
    17  H    0.000093  -0.000002  -0.000024   0.000001
    18  O    0.002425  -0.004586   0.003627  -0.000131
    19  H   -0.049511  -0.002263   0.003376   0.000044
    20  O   -0.002263   0.109172  -0.013442   0.000083
    21  O    0.003376  -0.013442   0.058024  -0.000441
    22  H    0.000044   0.000083  -0.000441  -0.000737
 Mulliken charges and spin densities:
               1          2
     1  C   -0.125271   0.099840
     2  C   -0.118854  -0.048463
     3  C   -0.143130   0.098531
     4  C    0.060047  -0.106540
     5  C   -0.129582  -0.033532
     6  C   -0.000194   0.089849
     7  H    0.165423   0.000566
     8  H    0.139607  -0.004740
     9  H    0.136243   0.001556
    10  H    0.134154  -0.004511
    11  C    0.393647  -0.009031
    12  C   -0.109093   0.451604
    13  C   -0.121276  -0.167412
    14  H    0.144766  -0.020060
    15  C   -0.100521   0.376698
    16  H    0.148245   0.004224
    17  H    0.157270  -0.017661
    18  O   -0.569022   0.200261
    19  H    0.380587  -0.040749
    20  O   -0.413370   0.092802
    21  O   -0.375135   0.037657
    22  H    0.345460  -0.000889
 Sum of Mulliken charges =  -0.00000   1.00000
 Mulliken charges and spin densities with hydrogens summed into heavy atoms:
               1          2
     1  C    0.014336   0.095099
     2  C    0.017389  -0.046907
     3  C   -0.008976   0.094020
     4  C    0.060047  -0.106540
     5  C    0.035841  -0.032966
     6  C   -0.000194   0.089849
    11  C    0.393647  -0.009031
    12  C    0.035673   0.431544
    13  C    0.026969  -0.163188
    15  C    0.056749   0.359037
    18  O   -0.569022   0.200261
    20  O   -0.032783   0.052053
    21  O   -0.029675   0.036768
 APT charges:
               1
     1  C   -0.474138
     2  C   -0.506526
     3  C   -0.478907
     4  C   -0.373926
     5  C   -0.476745
     6  C   -0.391636
     7  H    0.446761
     8  H    0.721556
     9  H    0.816636
    10  H    0.634625
    11  C   -0.124541
    12  C   -0.456237
    13  C   -0.501837
    14  H    0.643699
    15  C   -0.518037
    16  H    0.724089
    17  H    0.619439
    18  O   -0.241026
    19  H    0.241467
    20  O   -0.503603
    21  O   -0.298951
    22  H    0.497838
 Sum of APT charges =  -0.00000
 APT charges with hydrogens summed into heavy atoms:
               1
     1  C    0.247418
     2  C    0.310110
     3  C    0.155718
     4  C   -0.373926
     5  C   -0.029984
     6  C   -0.391636
    11  C   -0.124541
    12  C    0.187462
    13  C    0.222252
    15  C    0.101402
    18  O   -0.241026
    20  O   -0.262136
    21  O    0.198887
 Electronic spatial extent (au):  <R**2>=           2287.2831
 Charge=             -0.0000 electrons
 Dipole moment (field-independent basis, Debye):
    X=              5.6106    Y=              2.3591    Z=             -0.0983  Tot=              6.0872
 Quadrupole moment (field-independent basis, Debye-Ang):
   XX=            -79.8269   YY=            -63.4705   ZZ=            -77.7016
   XY=             -8.0797   XZ=              7.6844   YZ=             -0.0184
 Traceless Quadrupole moment (field-independent basis, Debye-Ang):
   XX=             -6.1606   YY=             10.1959   ZZ=             -4.0353
   XY=             -8.0797   XZ=              7.6844   YZ=             -0.0184
 Octapole moment (field-independent basis, Debye-Ang**2):
  XXX=             42.2149  YYY=              2.2747  ZZZ=             11.5128  XYY=              2.6286
  XXY=             14.1554  XXZ=             -8.4029  XZZ=             -2.9377  YZZ=             -6.1272
  YYZ=              7.2783  XYZ=              6.3539
 Hexadecapole moment (field-independent basis, Debye-Ang**3):
 XXXX=          -1727.8538 YYYY=           -806.7678 ZZZZ=           -347.7408 XXXY=            -68.3012
 XXXZ=             98.5373 YYYX=            -11.9155 YYYZ=             16.4272 ZZZX=            -17.8523
 ZZZY=            -18.0109 XXYY=           -410.7829 XXZZ=           -367.7476 YYZZ=           -204.6492
 XXYZ=             12.3822 YYXZ=              2.1849 ZZXY=             11.8896
 N-N= 7.540006373365D+02 E-N=-2.934554380103D+03  KE= 6.064352701740D+02
  Exact polarizability:   0.000   0.000   0.000   0.000   0.000   0.000
 Approx polarizability: 213.916   1.087 186.055  28.483  18.408 102.582
                          Isotropic Fermi Contact Couplings
        Atom                 a.u.       MegaHertz       Gauss      10(-4) cm-1
     1  C(13)              0.01662      18.68485       6.66722       6.23260
     2  C(13)             -0.01164     -13.08777      -4.67004      -4.36561
     3  C(13)              0.01783      20.04404       7.15221       6.68597
     4  C(13)             -0.02709     -30.45623     -10.86754     -10.15910
     5  C(13)             -0.00942     -10.58551      -3.77717      -3.53095
     6  C(13)              0.01320      14.83393       5.29312       4.94807
     7  H(1)               0.00030       1.34478       0.47985       0.44857
     8  H(1)              -0.00154      -6.88967      -2.45841      -2.29815
     9  H(1)               0.00052       2.33819       0.83433       0.77994
    10  H(1)              -0.00154      -6.88647      -2.45726      -2.29708
    11  C(13)             -0.01513     -17.01134      -6.07007      -5.67437
    12  C(13)              0.07989      89.81184      32.04710      29.95801
    13  C(13)             -0.04029     -45.28921     -16.16032     -15.10685
    14  H(1)              -0.00690     -30.83107     -11.00129     -10.28414
    15  C(13)              0.06179      69.46643      24.78735      23.17151
    16  H(1)               0.00147       6.58198       2.34861       2.19551
    17  H(1)              -0.00616     -27.51328      -9.81742      -9.17744
    18  O(17)              0.03234     -19.60213      -6.99453      -6.53857
    19  H(1)              -0.01685     -75.30325     -26.87007     -25.11846
    20  O(17)              0.00004      -0.02542      -0.00907      -0.00848
    21  O(17)              0.01952     -11.83370      -4.22256      -3.94730
    22  H(1)              -0.00049      -2.18019      -0.77794      -0.72723
 --------------------------------------------------------
       Center         ----  Spin Dipole Couplings  ----
                      3XX-RR        3YY-RR        3ZZ-RR
 --------------------------------------------------------
     1   Atom       -0.028703     -0.034200      0.062903
     2   Atom        0.010388      0.016020     -0.026408
     3   Atom       -0.027244     -0.035168      0.062412
     4   Atom        0.020909      0.026903     -0.047811
     5   Atom        0.010269      0.006905     -0.017173
     6   Atom       -0.020159     -0.031529      0.051688
     7   Atom        0.002414      0.000640     -0.003054
     8   Atom       -0.002806      0.005319     -0.002513
     9   Atom       -0.000658      0.002210     -0.001552
    10   Atom        0.001353     -0.000142     -0.001211
    11   Atom       -0.011837     -0.000585      0.012423
    12   Atom       -0.129178     -0.164107      0.293285
    13   Atom        0.039394      0.037129     -0.076522
    14   Atom       -0.006735      0.004024      0.002711
    15   Atom       -0.111315     -0.138338      0.249653
    16   Atom        0.005865     -0.002292     -0.003573
    17   Atom        0.023603     -0.019025     -0.004578
    18   Atom       -0.286816     -0.307576      0.594392
    19   Atom        0.003374     -0.015508      0.012134
    20   Atom       -0.030422     -0.192357      0.222779
    21   Atom       -0.029219     -0.096944      0.126164
    22   Atom       -0.000483      0.002063     -0.001580
 --------------------------------------------------------
                        XY            XZ            YZ
 --------------------------------------------------------
     1   Atom        0.010107     -0.043156     -0.033150
     2   Atom       -0.006338      0.016887      0.013501
     3   Atom        0.011643     -0.043736     -0.032983
     4   Atom       -0.012801      0.030543      0.023285
     5   Atom       -0.006488      0.010947      0.006603
     6   Atom        0.009279     -0.040759     -0.028207
     7   Atom       -0.003865      0.000920     -0.000049
     8   Atom       -0.006124     -0.002444     -0.000334
     9   Atom       -0.001005      0.000088      0.000819
    10   Atom        0.004226      0.002980      0.002588
    11   Atom        0.009068     -0.002862      0.001249
    12   Atom        0.067426     -0.200091     -0.149507
    13   Atom       -0.011763      0.056605      0.040292
    14   Atom        0.027969      0.007244      0.013530
    15   Atom        0.041956     -0.156443     -0.127022
    16   Atom        0.000135      0.004559      0.000896
    17   Atom       -0.011333      0.007104     -0.008852
    18   Atom        0.089689     -0.335305     -0.285697
    19   Atom        0.005763     -0.025123     -0.004913
    20   Atom        0.039576     -0.266195     -0.057247
    21   Atom        0.025558     -0.143677     -0.053533
    22   Atom       -0.006183      0.002110     -0.006398
 --------------------------------------------------------


 ---------------------------------------------------------------------------------
              Anisotropic Spin Dipole Couplings in Principal Axis System
 ---------------------------------------------------------------------------------

       Atom             a.u.   MegaHertz   Gauss  10(-4) cm-1        Axes

              Baa    -0.0477    -6.407    -2.286    -2.137  0.7069  0.5527  0.4413
     1 C(13)  Bbb    -0.0419    -5.626    -2.008    -1.877 -0.6146  0.7888 -0.0036
              Bcc     0.0897    12.033     4.294     4.014 -0.3501 -0.2687  0.8973
 
              Baa    -0.0371    -4.985    -1.779    -1.663 -0.3541 -0.2696  0.8955
     2 C(13)  Bbb     0.0167     2.240     0.799     0.747  0.8699  0.2566  0.4212
              Bcc     0.0205     2.745     0.979     0.916 -0.3433  0.9282  0.1437
 
              Baa    -0.0466    -6.250    -2.230    -2.085  0.5981  0.6684  0.4423
     3 C(13)  Bbb    -0.0434    -5.823    -2.078    -1.942  0.7160 -0.6935  0.0798
              Bcc     0.0900    12.073     4.308     4.027 -0.3600 -0.2690  0.8933
 
              Baa    -0.0668    -8.967    -3.200    -2.991 -0.3515 -0.2707  0.8962
     4 C(13)  Bbb     0.0298     3.992     1.425     1.332  0.6741  0.5911  0.4429
              Bcc     0.0371     4.975     1.775     1.659 -0.6496  0.7598 -0.0253
 
              Baa    -0.0234    -3.134    -1.118    -1.045 -0.3448 -0.2701  0.8990
     5 C(13)  Bbb     0.0072     0.960     0.343     0.320  0.3685  0.8419  0.3943
              Bcc     0.0162     2.174     0.776     0.725  0.8633 -0.4672  0.1908
 
              Baa    -0.0421    -5.650    -2.016    -1.885  0.5154  0.7328  0.4443
     6 C(13)  Bbb    -0.0360    -4.824    -1.721    -1.609  0.7626 -0.6287  0.1523
              Bcc     0.0781    10.474     3.738     3.494 -0.3910 -0.2603  0.8828
 
              Baa    -0.0034    -1.820    -0.649    -0.607 -0.3570 -0.3300  0.8739
     7 H(1)   Bbb    -0.0021    -1.145    -0.409    -0.382  0.5096  0.7153  0.4783
              Bcc     0.0056     2.966     1.058     0.989  0.7829 -0.6160  0.0872
 
              Baa    -0.0072    -3.861    -1.378    -1.288  0.8010  0.4025  0.4431
     8 H(1)   Bbb    -0.0014    -0.768    -0.274    -0.256 -0.3547 -0.2772  0.8930
              Bcc     0.0087     4.628     1.651     1.544 -0.4823  0.8724  0.0793
 
              Baa    -0.0018    -0.967    -0.345    -0.323 -0.2969 -0.2611  0.9185
     9 H(1)   Bbb    -0.0008    -0.453    -0.162    -0.151  0.9127  0.2052  0.3533
              Bcc     0.0027     1.421     0.507     0.474 -0.2807  0.9433  0.1774
 
              Baa    -0.0037    -1.970    -0.703    -0.657 -0.6029  0.7914 -0.1014
    10 H(1)   Bbb    -0.0031    -1.675    -0.598    -0.559 -0.4072 -0.1960  0.8921
              Bcc     0.0068     3.646     1.301     1.216  0.6861  0.5791  0.4404
 
              Baa    -0.0172    -2.309    -0.824    -0.770  0.8698 -0.4823  0.1043
    11 C(13)  Bbb     0.0044     0.597     0.213     0.199  0.4814  0.8758  0.0356
              Bcc     0.0128     1.712     0.611     0.571 -0.1085  0.0193  0.9939
 
              Baa    -0.2166   -29.063   -10.370    -9.694 -0.7006  0.7104 -0.0666
    12 C(13)  Bbb    -0.2025   -27.170    -9.695    -9.063  0.6165  0.6497  0.4448
              Bcc     0.4191    56.233    20.065    18.757 -0.3593 -0.2705  0.8932
 
              Baa    -0.1113   -14.939    -5.331    -4.983 -0.3569 -0.2709  0.8940
    13 C(13)  Bbb     0.0477     6.402     2.284     2.135 -0.3496  0.9262  0.1411
              Bcc     0.0636     8.537     3.046     2.848  0.8663  0.2621  0.4253
 
              Baa    -0.0302   -16.089    -5.741    -5.367  0.7491 -0.6542  0.1042
    14 H(1)   Bbb    -0.0042    -2.222    -0.793    -0.741 -0.3560 -0.2648  0.8962
              Bcc     0.0343    18.311     6.534     6.108  0.5587  0.7084  0.4313
 
              Baa    -0.1782   -23.906    -8.530    -7.974  0.3895  0.8343  0.3902
    15 C(13)  Bbb    -0.1668   -22.388    -7.989    -7.468  0.8582 -0.4826  0.1752
              Bcc     0.3450    46.295    16.519    15.442 -0.3344 -0.2666  0.9039
 
              Baa    -0.0056    -2.988    -1.066    -0.997 -0.3572 -0.2305  0.9051
    16 H(1)   Bbb    -0.0021    -1.136    -0.405    -0.379 -0.1286  0.9720  0.1967
              Bcc     0.0077     4.124     1.472     1.376  0.9251  0.0462  0.3769
 
              Baa    -0.0244   -13.038    -4.652    -4.349  0.1654  0.9214  0.3516
    17 H(1)   Bbb    -0.0045    -2.399    -0.856    -0.800 -0.3403 -0.2813  0.8973
              Bcc     0.0289    15.438     5.509     5.149  0.9257 -0.2680  0.2670
 
              Baa    -0.4027    29.137    10.397     9.719  0.8280  0.4000  0.3931
    18 O(17)  Bbb    -0.3865    27.969     9.980     9.329 -0.4693  0.8779  0.0953
              Bcc     0.7892   -57.105   -20.377   -19.048 -0.3069 -0.2633  0.9146
 
              Baa    -0.0185    -9.895    -3.531    -3.301  0.6932 -0.5361  0.4818
    19 H(1)   Bbb    -0.0158    -8.447    -3.014    -2.817  0.3332  0.8311  0.4453
              Bcc     0.0344    18.341     6.545     6.118 -0.6391 -0.1482  0.7547
 
              Baa    -0.2026    14.659     5.231     4.890 -0.5430  0.8073 -0.2312
    20 O(17)  Bbb    -0.1965    14.221     5.074     4.744  0.6506  0.5785  0.4920
              Bcc     0.3991   -28.880   -10.305    -9.633 -0.5309 -0.1168  0.8393
 
              Baa    -0.1178     8.522     3.041     2.843  0.7124  0.4686  0.5224
    21 O(17)  Bbb    -0.1050     7.594     2.710     2.533 -0.4914  0.8645 -0.1053
              Bcc     0.2227   -16.116    -5.751    -5.376 -0.5010 -0.1818  0.8462
 
              Baa    -0.0074    -3.947    -1.408    -1.317  0.4279  0.6813  0.5939
    22 H(1)   Bbb    -0.0031    -1.648    -0.588    -0.550  0.7529  0.0949 -0.6513
              Bcc     0.0105     5.595     1.996     1.866 -0.5001  0.7259 -0.4723
 

 ---------------------------------------------------------------------------------

 Calling FoFJK, ICntrl=    100147 FMM=F ISym2X=0 I1Cent= 0 IOpClX= 1 NMat=1 NMatS=1 NMatT=0.
 ***** Axes restored to original set *****
 -------------------------------------------------------------------
 Center     Atomic                   Forces (Hartrees/Bohr)
 Number     Number              X              Y              Z
 -------------------------------------------------------------------
      1        6          -0.000564901   -0.000054311   -0.000275685
      2        6           0.000183151    0.000443438    0.000207994
      3        6           0.000298341   -0.000255672    0.000089968
      4        6          -0.000905578    0.002891860    0.000067582
      5        6           0.000296387   -0.001237818   -0.000455322
      6        6          -0.005135938   -0.000228437   -0.003170878
      7        1           0.000197229   -0.000371367    0.000244253
      8        1          -0.000138886    0.000033597    0.000042217
      9        1          -0.000119080    0.000046957    0.000007557
     10        1          -0.000112489   -0.000009507   -0.000002619
     11        6           0.023969049    0.026871359    0.017096940
     12        6           0.000308690   -0.001699986   -0.000422558
     13        6           0.001082921    0.000241316    0.000297770
     14        1          -0.000079966    0.000017996    0.000053667
     15        6           0.001375361   -0.005484643   -0.000130572
     16        1          -0.000095596   -0.000207214   -0.000108337
     17        1          -0.000359332    0.000495884    0.000117406
     18        8          -0.033914123   -0.017109755    0.009732735
     19        1          -0.028088741   -0.039343435    0.049472131
     20        8           0.039244246    0.034254840   -0.082041433
     21        8           0.001662843    0.000177081    0.009693549
     22        1           0.000896412    0.000527819   -0.000516367
 -------------------------------------------------------------------
 Cartesian Forces:  Max     0.082041433 RMS     0.016301548
 FormGI is forming the generalized inverse of G from B-inverse, IUseBI=4.

 GradGradGradGradGradGradGradGradGradGradGradGradGradGradGradGradGradGrad
 Berny optimization.
 Internal  Forces:  Max     0.089853714 RMS     0.009912246
 Search for a saddle point.
 Step number   1 out of a maximum of  132
 All quantities printed in internal units (Hartrees-Bohrs-Radians)
 Swapping is turned off.
 Second derivative matrix not updated -- analytic derivatives used.
 ITU=  0
     Eigenvalues ---   -0.07261   0.00015   0.00137   0.00976   0.01147
     Eigenvalues ---    0.01487   0.01510   0.01710   0.01788   0.01949
     Eigenvalues ---    0.02041   0.02179   0.02244   0.02286   0.02429
     Eigenvalues ---    0.02489   0.02612   0.02754   0.02795   0.03263
     Eigenvalues ---    0.04895   0.10186   0.10598   0.10853   0.11426
     Eigenvalues ---    0.11809   0.12202   0.12433   0.12639   0.13829
     Eigenvalues ---    0.17735   0.17933   0.18715   0.19187   0.19197
     Eigenvalues ---    0.19832   0.20680   0.23233   0.26049   0.27521
     Eigenvalues ---    0.28837   0.30989   0.35991   0.36250   0.36365
     Eigenvalues ---    0.36495   0.36636   0.36720   0.36746   0.37968
     Eigenvalues ---    0.38778   0.39573   0.42014   0.43230   0.45268
     Eigenvalues ---    0.48372   0.49924   0.52326   0.53612   0.78167
 Eigenvectors required to have negative eigenvalues:
                          R20       R21       D47       A32       A33
   1                    0.70101  -0.67746  -0.10646   0.09465   0.08483
                          R14       R22       R13       D49       R12
   1                   -0.08079   0.06310   0.05514  -0.04867   0.03771
 RFO step:  Lambda0=1.740132085D-02 Lambda=-6.75745150D-02.
 Linear search not attempted -- option 19 set.
 Maximum step size (   0.300) exceeded in Quadratic search.
    -- Step size scaled by   0.346
 Iteration  1 RMS(Cart)=  0.04092125 RMS(Int)=  0.00791949
 Iteration  2 RMS(Cart)=  0.01345136 RMS(Int)=  0.00004092
 Iteration  3 RMS(Cart)=  0.00004889 RMS(Int)=  0.00000346
 Iteration  4 RMS(Cart)=  0.00000001 RMS(Int)=  0.00000346
 Variable       Old X    -DE/DX   Delta X   Delta X   Delta X     New X
                                 (Linear)    (Quad)   (Total)
    R1        2.65292   0.00054   0.00000   0.00307   0.00307   2.65599
    R2        2.61965  -0.00048   0.00000  -0.00288  -0.00288   2.61677
    R3        2.04882  -0.00009   0.00000  -0.00006  -0.00006   2.04876
    R4        2.61055  -0.00016   0.00000  -0.00277  -0.00277   2.60778
    R5        2.04973  -0.00012   0.00000   0.00008   0.00008   2.04980
    R6        2.66724   0.00003   0.00000   0.00223   0.00222   2.66947
    R7        2.05156  -0.00007   0.00000   0.00000   0.00000   2.05156
    R8        2.67239   0.00066   0.00000   0.00261   0.00261   2.67500
    R9        2.70161  -0.00224   0.00000  -0.00391  -0.00392   2.69769
   R10        2.64019   0.00119   0.00000   0.00472   0.00472   2.64491
   R11        2.04881   0.00004   0.00000  -0.00006  -0.00006   2.04875
   R12        2.79061  -0.00543   0.00000  -0.01551  -0.01551   2.77510
   R13        2.73959  -0.00474   0.00000  -0.01950  -0.01949   2.72009
   R14        2.34654   0.03240   0.00000   0.03066   0.03066   2.37720
   R15        2.63548  -0.00097   0.00000  -0.00540  -0.00541   2.63007
   R16        2.05044  -0.00001   0.00000   0.00022   0.00022   2.05065
   R17        2.61039   0.00024   0.00000   0.00525   0.00525   2.61564
   R18        2.04848  -0.00017   0.00000  -0.00028  -0.00028   2.04820
   R19        2.04828   0.00039   0.00000   0.00038   0.00038   2.04867
   R20        2.77257  -0.02589   0.00000  -0.28006  -0.28006   2.49251
   R21        2.65276  -0.08985   0.00000  -0.08628  -0.08628   2.56647
   R22        2.68923   0.00656   0.00000  -0.01216  -0.01216   2.67707
   R23        1.82871  -0.00013   0.00000   0.00141   0.00141   1.83012
    A1        2.09697   0.00025   0.00000   0.00132   0.00132   2.09829
    A2        2.08991  -0.00002   0.00000  -0.00081  -0.00081   2.08910
    A3        2.09630  -0.00022   0.00000  -0.00052  -0.00052   2.09579
    A4        2.10022   0.00023   0.00000  -0.00001  -0.00001   2.10021
    A5        2.09280  -0.00009   0.00000  -0.00029  -0.00029   2.09251
    A6        2.09017  -0.00014   0.00000   0.00029   0.00029   2.09047
    A7        2.10124  -0.00001   0.00000   0.00048   0.00048   2.10172
    A8        2.10192   0.00008   0.00000   0.00069   0.00069   2.10262
    A9        2.08001  -0.00007   0.00000  -0.00117  -0.00117   2.07884
   A10        2.07332  -0.00019   0.00000  -0.00021  -0.00021   2.07311
   A11        2.12621   0.00018   0.00000   0.00005   0.00005   2.12625
   A12        2.08366   0.00001   0.00000   0.00017   0.00016   2.08382
   A13        2.09603  -0.00049   0.00000  -0.00057  -0.00057   2.09547
   A14        2.12824  -0.00018   0.00000  -0.00064  -0.00064   2.12760
   A15        2.05889   0.00067   0.00000   0.00121   0.00121   2.06009
   A16        2.09859   0.00021   0.00000  -0.00102  -0.00102   2.09756
   A17        2.09288  -0.00046   0.00000  -0.00405  -0.00404   2.08884
   A18        2.09169   0.00025   0.00000   0.00507   0.00507   2.09676
   A19        2.04503   0.00174   0.00000   0.00879   0.00880   2.05384
   A20        2.11573  -0.00371   0.00000  -0.00631  -0.00632   2.10941
   A21        2.12241   0.00197   0.00000  -0.00247  -0.00248   2.11993
   A22        2.11649  -0.00064   0.00000  -0.00115  -0.00116   2.11533
   A23        2.06825   0.00038   0.00000   0.00070   0.00071   2.06896
   A24        2.09843   0.00026   0.00000   0.00044   0.00045   2.09888
   A25        2.10885  -0.00034   0.00000  -0.00195  -0.00195   2.10690
   A26        2.08453   0.00036   0.00000   0.00243   0.00243   2.08695
   A27        2.08978  -0.00001   0.00000  -0.00048  -0.00048   2.08930
   A28        2.11935  -0.00031   0.00000  -0.00182  -0.00181   2.11754
   A29        2.03290   0.00065   0.00000   0.00371   0.00370   2.03660
   A30        2.13083  -0.00034   0.00000  -0.00191  -0.00192   2.12891
   A31        1.72151   0.00713   0.00000   0.03899   0.03899   1.76050
   A32        2.66958  -0.00459   0.00000  -0.01595  -0.01595   2.65363
   A33        1.57568   0.01792   0.00000   0.01466   0.01466   1.59034
   A34        1.77144   0.00132   0.00000   0.00686   0.00686   1.77829
    D1       -0.00224   0.00001   0.00000  -0.00020  -0.00020  -0.00244
    D2        3.13885  -0.00004   0.00000  -0.00018  -0.00018   3.13867
    D3        3.14007   0.00008   0.00000  -0.00016  -0.00016   3.13991
    D4       -0.00202   0.00003   0.00000  -0.00014  -0.00014  -0.00216
    D5        0.00073  -0.00003   0.00000  -0.00041  -0.00041   0.00033
    D6        3.13400   0.00015   0.00000  -0.00002  -0.00002   3.13397
    D7       -3.14158  -0.00010   0.00000  -0.00045  -0.00045   3.14116
    D8       -0.00832   0.00008   0.00000  -0.00006  -0.00007  -0.00838
    D9        0.00136   0.00000   0.00000   0.00018   0.00018   0.00153
   D10        3.13844  -0.00005   0.00000   0.00006   0.00005   3.13850
   D11       -3.13973   0.00005   0.00000   0.00015   0.00015  -3.13958
   D12       -0.00264   0.00000   0.00000   0.00003   0.00003  -0.00261
   D13        0.00097  -0.00000   0.00000   0.00044   0.00044   0.00141
   D14        3.14119  -0.00009   0.00000  -0.00015  -0.00015   3.14104
   D15       -3.13617   0.00005   0.00000   0.00056   0.00056  -3.13561
   D16        0.00405  -0.00003   0.00000  -0.00004  -0.00004   0.00401
   D17       -0.00247  -0.00001   0.00000  -0.00104  -0.00104  -0.00351
   D18        3.12978  -0.00006   0.00000  -0.00004  -0.00004   3.12974
   D19        3.14047   0.00007   0.00000  -0.00047  -0.00046   3.14000
   D20       -0.01048   0.00002   0.00000   0.00054   0.00054  -0.00994
   D21       -3.14150   0.00009   0.00000   0.00000   0.00001  -3.14149
   D22       -0.00506   0.00003   0.00000  -0.00030  -0.00029  -0.00536
   D23       -0.00129   0.00000   0.00000  -0.00059  -0.00059  -0.00188
   D24        3.13515  -0.00005   0.00000  -0.00089  -0.00089   3.13426
   D25        0.00162   0.00003   0.00000   0.00103   0.00103   0.00265
   D26       -3.13063   0.00008   0.00000   0.00007   0.00007  -3.13055
   D27       -3.13197  -0.00013   0.00000   0.00067   0.00067  -3.13130
   D28        0.01897  -0.00009   0.00000  -0.00029  -0.00029   0.01868
   D29        0.01603  -0.00003   0.00000   0.00011   0.00012   0.01614
   D30       -3.12014  -0.00043   0.00000  -0.00338  -0.00337  -3.12351
   D31       -3.13488  -0.00008   0.00000   0.00108   0.00109  -3.13379
   D32        0.01214  -0.00048   0.00000  -0.00241  -0.00240   0.00974
   D33       -0.01039   0.00004   0.00000  -0.00068  -0.00068  -0.01107
   D34       -3.13646  -0.00004   0.00000   0.00107   0.00107  -3.13539
   D35        3.12575   0.00042   0.00000   0.00281   0.00282   3.12857
   D36       -0.00032   0.00034   0.00000   0.00456   0.00457   0.00425
   D37        2.02580   0.00209   0.00000   0.00996   0.00995   2.03575
   D38       -1.11012   0.00168   0.00000   0.00629   0.00630  -1.10383
   D39        0.00725  -0.00000   0.00000   0.00004   0.00004   0.00729
   D40        3.14028  -0.00001   0.00000  -0.00056  -0.00056   3.13972
   D41       -3.12910   0.00005   0.00000   0.00034   0.00035  -3.12876
   D42        0.00393   0.00005   0.00000  -0.00026  -0.00026   0.00368
   D43       -0.00102  -0.00003   0.00000   0.00055   0.00055  -0.00047
   D44        3.12417   0.00006   0.00000  -0.00125  -0.00124   3.12293
   D45       -3.13403  -0.00003   0.00000   0.00114   0.00114  -3.13289
   D46       -0.00883   0.00006   0.00000  -0.00066  -0.00066  -0.00949
   D47       -1.37021   0.00938   0.00000   0.05355   0.05355  -1.31666
   D48        0.99985   0.00046   0.00000  -0.00882  -0.00882   0.99103
   D49       -1.92400   0.00161   0.00000   0.02380   0.02380  -1.90020
         Item               Value     Threshold  Converged?
 Maximum Force            0.089854     0.002500     NO 
 RMS     Force            0.009912     0.001667     NO 
 Maximum Displacement     0.184200     0.010000     NO 
 RMS     Displacement     0.051631     0.006667     NO 
 Predicted change in Energy=-1.653913D-02
 GradGradGradGradGradGradGradGradGradGradGradGradGradGradGradGradGradGrad

                          Input orientation:                          
 ---------------------------------------------------------------------
 Center     Atomic      Atomic             Coordinates (Angstroms)
 Number     Number       Type             X           Y           Z
 ---------------------------------------------------------------------
      1          6           0        2.282588   -1.748727   -0.183542
      2          6           0        3.068013   -0.743185    0.405863
      3          6           0        2.559840    0.528592    0.575241
      4          6           0        1.244614    0.834419    0.160331
      5          6           0        0.990322   -1.471471   -0.596664
      6          6           0        0.461033   -0.186704   -0.428817
      7          1           0        0.363181   -2.224332   -1.060643
      8          1           0        2.692739   -2.743917   -0.313044
      9          1           0        4.078677   -0.967003    0.729991
     10          1           0        3.163546    1.306246    1.032851
     11          6           0       -0.913983    0.105502   -0.853664
     12          6           0        0.688607    2.139314    0.321645
     13          6           0       -0.608989    2.426271   -0.091802
[...]
 8,0.00013939,-0.00026336,0.00052506,-0.00008959,-0.00202468,0.00113964
 ,-0.00022404,0.01158521,0.00029490,0.00490447,0.02247319,0.63029637,-0
 .00054914,0.00066644,-0.00070793,-0.00439433,-0.00136897,0.00400116,-0
 .00520689,0.01354092,0.00282700,-0.01280477,-0.02106292,-0.06699647,-0
 .00311969,-0.00341754,0.00477440,0.00607878,-0.00869409,0.00299263,0.0
 0030236,-0.00065710,0.00014208,0.00042096,0.00013692,-0.00093103,-0.00
 021657,0.00050732,0.00036651,0.00117887,0.00099397,-0.00279140,0.00430
 533,0.00869571,-0.00214621,0.19105684,0.06863115,0.21349896,-0.0057115
 1,-0.00418401,-0.00268340,0.00345111,0.01297811,0.00298043,0.01831041,
 -0.01233094,0.00398007,-0.01989395,0.06507850,-0.00203006,-0.00008293,
 -0.00043145,0.00006776,-0.01667530,-0.00709617,-0.00702976,-0.00034003
 ,0.00023202,-0.00002227,-0.00001841,0.00000328,-0.00007060,-0.00009859
 ,0.00022752,0.00016160,0.00020377,-0.00029648,0.00005631,0.00137766,-0
 .04532800,-0.00401564,-0.24597854,0.01980894,-0.07273020,0.54101502,0.
 00064570,-0.00074997,0.00018926,0.00177489,0.00111560,0.00079363,0.001
 56105,-0.00722509,-0.00077549,0.03146559,0.00028665,0.01169426,-0.0010
 3296,0.00165978,-0.00020024,-0.00037971,-0.00221960,-0.00022661,-0.000
 23274,0.00014324,-0.00004508,-0.00005876,0.00003808,-0.00003529,0.0000
 8398,-0.00052108,0.00002709,0.00035404,0.00000076,0.00013158,-0.028876
 32,-0.03041028,-0.01462798,0.11666856,-0.15832715,0.03323069,-0.049107
 32,0.73967211,-0.00204449,-0.00163931,-0.00113440,0.00154238,0.0050728
 5,0.00118829,0.00562593,-0.00603300,0.00553969,-0.00607125,0.02393197,
 0.00604960,0.00006271,0.00012814,-0.00063721,-0.00599518,-0.00290048,-
 0.00369747,-0.00014189,0.00012148,-0.00002308,-0.00009457,-0.00002386,
 0.00017995,0.00015969,0.00009835,-0.00042301,0.00009507,-0.00012628,0.
 00013151,-0.00362321,-0.02113491,-0.00156909,-0.06033016,-0.00338151,-
 0.08087563,0.15583493,0.05246652,0.18844372,0.00029163,0.00007459,0.00
 010109,-0.00009138,-0.00053694,-0.00010997,0.00050401,0.00124799,0.001
 34049,0.00821030,0.00563871,0.00196459,0.00029591,0.00037567,0.0002353
 0,0.00047273,0.00223151,-0.00119591,-0.00004695,0.00011749,0.00006989,
 0.00000182,-0.00001074,-0.00002199,0.00001782,-0.00001744,-0.00002032,
 0.00008183,-0.00058134,-0.00007489,-0.00043281,0.00034222,0.00020538,-
 0.18102399,-0.12244937,-0.07177279,-0.01245562,-0.02069525,-0.00991378
 ,0.18753616,0.00016109,0.00017282,0.00008183,0.00028737,0.00003659,0.0
 0011028,-0.00193554,0.00129919,-0.00025202,-0.02118903,-0.01483458,-0.
 01044812,-0.00174600,-0.00039146,-0.00068098,0.00358946,-0.00416668,0.
 00030246,0.00022389,-0.00043874,0.00001917,0.00007773,0.00002502,0.000
 02735,0.00002305,-0.00002708,-0.00000192,0.00121926,0.00005824,0.00043
 857,0.00068700,-0.00106052,0.00026902,-0.12357306,-0.18568449,-0.06655
 857,0.00765507,0.01084248,0.00357179,0.13171513,0.19205149,0.00008342,
 0.00003148,0.00011646,0.00001612,-0.00015392,-0.00001578,0.00100484,0.
 00088939,-0.00211536,-0.00102380,-0.00008517,0.00455097,-0.00000860,0.
 00016801,-0.00019994,-0.00109704,-0.00015655,0.00394799,0.00006001,0.0
 0001954,-0.00016350,-0.00001193,-0.00000847,0.00004499,-0.00001691,-0.
 00001882,0.00005684,0.00006173,-0.00019619,0.00029469,0.00036905,0.000
 27057,-0.00073407,-0.07246020,-0.06618164,-0.07355980,-0.00588465,-0.0
 0733825,0.00334630,0.08083717,0.07202997,0.06337354,0.00282520,0.00216
 717,0.00155139,-0.00183123,-0.00465671,-0.00124243,-0.00594448,0.00386
 217,-0.00149651,0.00519162,-0.01795480,0.00042127,-0.00639617,0.001105
 18,-0.00321040,0.00327539,0.03016475,0.00068937,0.00009732,-0.00012120
 ,-0.00001349,-0.00058038,0.00023350,-0.00007199,0.00007454,-0.00021858
 ,-0.00009086,-0.00006438,0.00002912,-0.00002536,-0.12079951,0.07040659
 ,-0.01225249,-0.06760505,0.00433341,-0.02675053,-0.20097901,-0.1301508
 6,-0.07192624,-0.00320988,0.00295019,-0.00342944,0.67425560,0.00188185
 ,0.00327150,0.00110039,-0.00015972,-0.00461205,-0.00068712,-0.00601245
 ,0.00379675,-0.00177388,0.00607110,-0.02493480,-0.00061558,0.00045376,
 0.00118818,0.00010761,0.01379296,-0.00752895,0.00357650,0.00002682,0.0
 0014677,0.00001617,0.00009834,-0.00011282,0.00009074,-0.00004271,-0.00
 001796,-0.00001512,0.00012596,0.00010858,0.00002782,0.08479647,-0.2036
 3505,0.01705707,-0.06023035,0.04395367,-0.01791561,-0.04898809,-0.2356
 3962,-0.03979225,0.00376762,0.00060487,0.00058950,0.00126947,0.6055232
 2,0.00158521,0.00126196,0.00049976,-0.00072471,-0.00244776,-0.00068752
 ,-0.00272423,0.00210997,-0.00164806,0.00332099,-0.00956122,-0.00142914
 ,-0.00331932,0.00039202,0.00108311,-0.00093552,0.00918272,0.01169369,0
 .00002630,-0.00014984,0.00020003,-0.00007502,0.00012834,-0.00036402,-0
 .00006890,-0.00012137,0.00019250,-0.00000281,0.00003081,-0.00004561,-0
 .00937470,0.01256946,-0.07501519,-0.03455231,0.00633390,-0.00839262,-0
 .06203301,-0.07133559,-0.08381095,-0.00312350,0.00048291,0.00476431,0.
 21185281,0.05461298,0.20318889,-0.00002604,-0.00015186,-0.00011198,-0.
 00049690,0.00017981,0.00007757,0.00057178,0.00123449,0.00018892,-0.004
 03981,0.00030552,-0.00415502,0.00006563,0.00009211,0.00029368,-0.00026
 932,-0.00062578,0.00022157,-0.00003596,0.00004540,-0.00001013,0.000028
 60,0.00001315,-0.00002236,-0.00003607,0.00014075,0.00002638,-0.0000209
 3,-0.00002694,-0.00004915,-0.00259301,-0.00035912,-0.00463800,-0.00139
 600,0.02904219,0.00153799,-0.07124722,0.06153887,-0.00503986,0.0002761
 9,-0.00050112,0.00149868,0.01015553,-0.02246141,-0.00076931,0.06906602
 ,-0.00009594,0.00001511,-0.00005532,0.00015369,0.00007683,0.00013668,-
 0.00007513,-0.00043058,-0.00013145,0.00147666,0.00152425,-0.00002648,0
 .00008446,-0.00011768,0.00009786,-0.00030778,0.00052087,0.00007617,-0.
 00001275,0.00001655,-0.00001055,0.00001116,-0.00001442,-0.00000884,0.0
 0000601,-0.00004349,0.00000566,0.00003305,0.00000211,0.00000078,-0.002
 54217,0.00184617,-0.00192906,-0.00051420,-0.00459071,-0.00120731,0.062
 82688,-0.32826168,-0.01014397,-0.00008610,0.00056306,0.00047384,0.0065
 1378,-0.01585415,0.00004215,-0.06687137,0.34580317,-0.00011493,-0.0000
 9811,0.00014180,0.00004624,0.00017451,-0.00056501,0.00005105,0.0003623
 7,0.00051971,-0.00400675,-0.00056248,0.00507927,0.00031164,0.00009016,
 -0.00052629,0.00019622,-0.00008408,-0.00090891,-0.00002387,0.00002249,
 0.00001263,-0.00002349,-0.00001008,0.00008363,0.00001092,0.00005876,-0
 .00005076,-0.00004289,-0.00002170,0.00007815,-0.00482109,-0.00102645,0
 .00724883,-0.00190783,0.01024489,0.00377522,-0.00501170,-0.01039064,-0
 .04246032,0.00154801,0.00029141,-0.00311423,0.00284764,-0.01117332,0.0
 0534757,0.00871045,0.01222880,0.03061911,-0.00020142,0.00008842,0.0000
 4696,0.00006897,0.00016374,-0.00003375,0.00001579,-0.00009849,0.000188
 12,0.00026749,0.00006529,0.00040489,0.00004980,-0.00035022,-0.00024651
 ,0.00074145,0.00106361,-0.00082803,0.00003892,0.00001926,-0.00000492,-
 0.00005101,0.00000211,0.00003247,-0.00000184,0.00001233,-0.00001339,0.
 00001819,-0.00002017,-0.00000607,-0.00312797,-0.00119623,-0.00317746,0
 .00010833,-0.00294986,-0.00310661,-0.01044775,0.00825127,-0.00531479,-
 0.00071783,0.00041064,-0.00003183,-0.29503299,0.07770271,-0.08906223,0
 .00000120,-0.00025468,0.00166092,0.30762302,0.00022853,-0.00042578,0.0
 0004421,-0.00006466,-0.00021668,-0.00007728,-0.00011917,0.00031424,0.0
 0004949,-0.00016548,-0.00083324,-0.00008795,0.00135812,0.00048548,0.00
 049943,-0.00033146,-0.00591016,-0.00110860,0.00000175,0.00000564,-0.00
 001744,0.00015799,-0.00005084,0.00007169,0.00000809,0.00001662,0.00000
 354,0.00007801,0.00000119,0.00002598,0.03015548,-0.00433943,0.01028418
 ,-0.00298216,-0.00305277,-0.00233365,-0.01969826,0.01165607,-0.0067686
 8,-0.00105815,0.00042520,-0.00031126,0.07684944,-0.08479573,0.02431947
 ,0.00026961,0.00079275,0.00069236,-0.08243724,0.08209866,0.00008406,0.
 00003566,-0.00026346,-0.00005629,0.00000006,0.00020274,0.00019137,0.00
 006489,-0.00043550,0.00039907,0.00010537,-0.00063468,-0.00011784,-0.00
 013328,0.00054448,-0.00093482,-0.00061381,0.00272717,-0.00002223,-0.00
 000002,0.00006352,0.00005023,0.00001608,-0.00012102,-0.00001478,0.0000
 0268,0.00003095,0.00000390,-0.00001170,0.00002925,0.00005774,-0.001682
 35,0.00497211,-0.00292583,-0.00246842,0.00594167,-0.00920068,0.0038183
 1,0.00299167,-0.00020044,0.00025619,-0.00055793,-0.08851152,0.02455365
 ,-0.06669548,0.00180136,0.00055220,-0.00391860,0.09813006,-0.02504062,
 0.05752794,-0.00698765,-0.00125653,-0.00285738,0.00155621,0.00557064,0
 .00130893,0.00227811,-0.00553393,0.00046794,-0.00639231,0.01653664,-0.
 00176533,0.00681148,-0.01133975,0.00108140,-0.06395076,-0.02255638,-0.
 03045446,-0.00199132,-0.00004254,-0.00019388,-0.00031116,0.00014020,-0
 .00004132,-0.00009128,0.00017448,-0.00005909,-0.00087229,0.00012344,-0
 .00028467,-0.32464815,-0.20655206,-0.12182977,-0.00975166,-0.00398646,
 -0.00414803,0.01934162,0.00800726,0.00709496,0.00027755,-0.00002983,0.
 00002962,0.00638679,-0.05213403,-0.01040283,-0.00005043,-0.00038989,0.
 00057263,0.00062571,-0.00223618,0.00127157,0.37585753,-0.00655095,0.00
 289474,-0.00207586,0.00316382,0.00612226,0.00194984,0.00530059,-0.0034
 7461,0.00172115,-0.00017963,0.00808482,0.00043416,0.00494024,-0.010758
 53,0.00077185,-0.02657415,0.02096716,-0.00922822,0.00116253,0.00157359
 ,0.00085449,-0.00037015,-0.00000355,-0.00005300,0.00002613,0.00035460,
 0.00001263,0.00017311,-0.00007177,0.00008172,-0.21984541,-0.30074301,-
 0.10693240,-0.00547927,-0.00762146,-0.00302831,0.01811406,-0.00225176,
 0.00624253,-0.00009713,0.00054598,-0.00002804,-0.04685793,-0.08159548,
 -0.02801250,-0.00191798,-0.00192497,-0.00080396,-0.00047824,0.00382545
 ,0.00059333,0.27387758,0.37411472,-0.00337879,-0.00000698,-0.00173217,
 0.00110565,0.00294486,0.00072823,0.00191293,-0.00247583,-0.00052625,-0
 .00369666,0.00630315,0.00282213,0.00373354,-0.00556918,-0.00012401,-0.
 03071551,-0.00750936,0.00207460,-0.00031245,0.00047718,-0.00063493,-0.
 00014281,0.00001071,0.00002859,-0.00006172,0.00009226,0.00010695,-0.00
 021763,0.00005786,-0.00023794,-0.12529045,-0.10242840,-0.11554542,-0.0
 0419831,-0.00224691,-0.00190819,0.00747652,0.00265612,0.00677445,0.000
 14491,0.00005338,-0.00005288,-0.00780986,-0.02915292,0.01082936,0.0004
 4510,-0.00007547,-0.00131056,0.00136366,-0.00024382,-0.00242197,0.1597
 6531,0.12885283,0.10859834,0.00026126,0.00081275,0.00027635,0.00018280
 ,-0.00000367,0.00014663,0.00022265,0.00000681,0.00010377,-0.00014516,0
 .00021887,-0.00002865,-0.00011438,-0.00146131,-0.00075397,0.00025096,-
 0.00017644,-0.00030360,-0.00317501,0.00096601,0.00016993,0.00004593,-0
 .00004556,-0.00005108,0.00011889,0.00007280,0.00005052,0.00004028,0.00
 003398,0.00001480,-0.00189771,-0.00277864,-0.00028106,0.00011843,-0.00
 014559,0.00004352,-0.00011980,0.00017317,-0.00008211,0.00001922,0.0000
 5767,0.00000701,0.00016836,0.00041866,0.00078804,0.00005508,0.00010194
 ,-0.00002523,0.00001347,0.00010369,-0.00006908,-0.00085140,0.00309632,
 -0.00148465,0.02881781,-0.00086854,-0.00060188,-0.00028112,0.00021803,
 0.00076804,0.00017836,0.00028231,-0.00082236,0.00003108,0.00001038,-0.
 00058402,-0.00015927,0.00100766,-0.00015459,0.00096116,0.00079617,0.00
 042392,-0.00008267,0.00100052,0.00112713,-0.00057182,0.00016247,-0.000
 08335,-0.00002378,0.00002407,-0.00004835,0.00000968,0.00005709,-0.0000
 0095,0.00002062,-0.00834438,-0.00405903,-0.00467859,-0.00115165,0.0010
 7683,-0.00029508,0.00136456,0.00045325,0.00062206,0.00005705,-0.000039
 71,0.00001866,0.00010081,0.00012371,0.00129982,0.00017186,0.00017832,-
 0.00003588,0.00003298,-0.00010380,-0.00006890,0.00825437,0.00192072,0.
 00127485,-0.03972563,0.27729614,0.00013537,0.00010266,0.00000617,-0.00
 013703,-0.00019488,-0.00004918,-0.00009415,0.00023607,0.00000717,-0.00
 010399,0.00024515,0.00002954,-0.00014153,0.00042995,-0.00076858,-0.000
 68890,-0.00040816,-0.00046258,0.00006256,-0.00057720,0.00116014,-0.000
 08064,0.00004809,0.00002222,-0.00002417,0.00000450,-0.00000780,-0.0000
 3700,-0.00000261,-0.00000318,0.00393762,-0.00027850,0.00340535,0.00040
 943,-0.00044085,0.00010184,-0.00033930,-0.00036236,-0.00033571,-0.0000
 3792,0.00000551,0.00001600,-0.00090817,-0.00069589,-0.00009262,-0.0000
 9577,-0.00010846,-0.00005586,-0.00000601,0.00006237,0.00008561,-0.0040
 6546,0.00058778,-0.00674227,0.06237532,-0.20462355,0.27937072,-0.00057
 477,-0.00123159,-0.00083893,-0.00011086,0.00039282,-0.00017788,-0.0000
 3009,-0.00025274,-0.00008020,0.00009676,-0.00063712,-0.00023696,-0.000
 86790,0.00061948,0.00315504,-0.00045372,-0.00009075,-0.00041928,-0.001
 99714,-0.00118480,-0.00119866,0.00003842,0.00004933,0.00009578,-0.0001
 5103,-0.00011282,-0.00005642,-0.00003657,-0.00005836,0.00002770,-0.000
 92919,0.00038215,-0.00033935,-0.00044695,0.00040412,-0.00015401,0.0004
 3575,0.00001231,0.00020051,-0.00001236,-0.00007939,0.00000557,-0.00001
 252,-0.00036926,-0.00041125,-0.00000211,-0.00005372,0.00002564,0.00000
 472,-0.00009045,0.00005926,0.00270483,-0.00137997,0.00119158,-0.019316
 53,0.05070305,-0.04903739,0.08435076,0.00026254,-0.00016592,-0.0001131
 7,-0.00020400,-0.00024218,-0.00007420,-0.00004927,0.00040858,-0.000014
 51,-0.00003054,0.00015743,0.00009388,-0.00155333,0.00060387,-0.0000829
 4,-0.00050457,-0.00013868,0.00026735,-0.00052499,-0.00070838,0.0003846
 5,-0.00012403,0.00004562,0.00003531,-0.00003757,-0.00000627,-0.0000178
 8,-0.00001882,-0.00000104,-0.00001555,0.00417244,0.00061037,0.00210013
 ,0.00045749,-0.00041588,0.00010600,-0.00049846,-0.00020247,-0.00017617
 ,-0.00002294,0.00002063,-0.00001850,-0.00011577,-0.00032479,-0.0012413
 5,-0.00010396,-0.00009682,0.00004857,-0.00002183,0.00006370,0.00006941
 ,-0.00616309,-0.01173142,0.00645482,0.03326001,-0.28392611,0.19156802,
 0.00573105,0.41931645,0.00028342,0.00055535,0.00032289,0.00013517,-0.0
 0006651,0.00024496,0.00010133,-0.00000860,0.00004440,-0.00003493,0.000
 09787,0.00012526,0.00035559,-0.00111674,-0.00125854,0.00036207,0.00032
 905,0.00026265,0.00106566,0.00107502,-0.00029446,0.00007656,-0.0000496
 6,-0.00014333,0.00009765,0.00004969,0.00003546,0.00004808,0.00002952,-
 0.00003148,-0.00268940,-0.00066526,-0.00295951,-0.00023430,0.00027082,
 -0.00003429,0.00029846,0.00026086,0.00022292,0.00003542,0.00002975,-0.
 00000925,0.00025234,0.00022821,0.00052689,0.00007860,0.00009118,-0.000
 02207,-0.00000286,-0.00002003,-0.00006997,0.00376663,0.00859473,-0.001
 81724,-0.04868895,0.24945120,-0.23685728,0.12809526,-0.10789141,0.4648
 5895,0.00086095,-0.00018889,0.00085322,0.00004349,-0.00047515,-0.00022
 349,-0.00036334,0.00004866,-0.00013942,0.00029199,0.00025531,0.0001584
 3,-0.00210509,-0.00070943,0.00195400,-0.00058355,0.00023868,0.00048614
 ,-0.00099652,-0.00080968,0.00025941,-0.00005404,-0.00000291,0.00005686
 ,-0.00002643,-0.00000674,-0.00002870,-0.00001548,-0.00000499,0.0000111
 3,-0.00135869,0.00007883,-0.00032170,-0.00019267,0.00022775,-0.0000336
 6,0.00027670,0.00006660,0.00009335,-0.00000362,-0.00002074,-0.00000879
 ,0.00001217,-0.00014182,0.00006941,0.00002152,-0.00001118,-0.00000048,
 0.00001299,-0.00005390,0.00000806,0.00103200,0.00087071,-0.00010075,-0
 .00403223,-0.01497914,-0.01055989,-0.06196318,-0.03335435,-0.08415027,
 0.57726705,0.00078022,-0.00001681,0.00034729,-0.00017422,-0.00055316,-
 0.00030774,-0.00036792,0.00039165,-0.00010541,0.00061423,0.00064130,0.
 00040654,-0.00083962,0.00010612,0.00077520,0.00000349,-0.00043362,-0.0
 0010091,-0.00064310,-0.00107071,-0.00025133,-0.00015724,0.00007325,0.0
 0006736,-0.00005212,-0.00001065,-0.00001570,-0.00004428,0.00000090,-0.
 00000636,0.00015425,0.00133310,0.00034550,0.00021079,-0.00016081,0.000
 03798,-0.00019723,-0.00001525,-0.00005594,-0.00001740,-0.00002411,-0.0
 0001437,0.00012104,0.00020322,0.00005786,-0.00000800,-0.00003062,-0.00
 001043,0.00000762,0.00000005,-0.00004234,0.00002854,-0.00008558,0.0006
 7732,0.00403618,0.00778032,0.01507184,-0.01938536,-0.11774482,-0.13425
 716,-0.06189971,0.14089701,-0.00055908,0.00011195,-0.00070607,0.000070
 51,0.00049408,0.00006064,0.00043035,-0.00019490,0.00021363,-0.00029484
 ,-0.00037154,-0.00046690,0.00143587,0.00057129,0.00029206,0.00046705,0
 .00049242,-0.00017924,-0.00085652,-0.00038693,-0.00080543,0.00002551,-
 0.00004456,0.00002019,0.00005225,0.00001080,0.00001518,0.00002940,0.00
 000732,0.00001635,-0.00003855,-0.00089768,-0.00011865,-0.00004401,0.00
 005380,0.00000895,0.00002875,0.00002545,0.00004048,0.00002086,0.000028
 29,0.00000310,-0.00003413,0.00009385,-0.00014304,0.00000089,0.00003837
 ,0.00001681,-0.00000903,0.00000786,-0.00000818,0.00003369,-0.00043665,
 0.00087927,-0.00676877,-0.03885964,-0.03593693,-0.04184997,-0.09070254
 ,-0.20312350,0.08562274,0.13697603,0.26681685,-0.00027849,0.00050750,-
 0.00026773,-0.00043201,-0.00060891,-0.00033500,-0.00031242,0.00048635,
 -0.00002073,0.00056410,0.00051004,0.00040783,0.00012166,0.00052949,-0.
 00015312,-0.00001113,-0.00145746,0.00023213,0.00118514,0.00077142,0.00
 031827,-0.00004981,0.00010172,0.00007345,0.00002619,0.00000686,0.00001
 963,0.00000533,0.00004171,-0.00003048,0.00088338,0.00056603,0.00002826
 ,0.00032582,-0.00042804,0.00006257,-0.00036339,-0.00006934,-0.00013198
 ,0.00000926,0.00001716,-0.00000003,0.00001308,0.00013413,-0.00006309,-
 0.00002774,0.00000728,-0.00000310,-0.00000924,0.00002642,-0.00000318,-
 0.00097343,-0.00099426,0.00027039,-0.00066293,0.00082598,-0.00056300,-
 0.00072633,-0.00055601,0.00074847,-0.50812403,0.07782985,-0.03776298,0
 .50883696,-0.00093517,0.00017738,-0.00034918,0.00013653,0.00049807,0.0
 0021979,0.00032616,-0.00041239,0.00012448,-0.00055880,-0.00049043,-0.0
 0040060,0.00048772,0.00005686,0.00084227,-0.00032106,-0.00039730,0.000
 26498,-0.00011307,0.00053138,-0.00033704,0.00030869,-0.00013581,-0.000
 16844,0.00005293,0.00001719,0.00001114,0.00003753,-0.00000866,0.000000
 03,0.00094219,-0.00043738,0.00044689,0.00007241,-0.00017618,-0.0000079
 4,-0.00013254,-0.00004405,-0.00007933,0.00000481,0.00002182,0.00002022
 ,-0.00003077,0.00013092,0.00004528,-0.00000620,0.00002590,0.00000281,-
 0.00001303,0.00004335,-0.00000635,-0.00049247,-0.00014189,-0.00014645,
 0.00097796,-0.00072422,-0.00066948,-0.03336797,-0.00552188,-0.01698787
 ,0.11087208,-0.03128079,-0.00701708,-0.07824792,0.03826812,0.00025621,
 -0.00048074,0.00005909,0.00016525,0.00002385,-0.00009439,-0.00022776,-
 0.00038434,-0.00026376,-0.00006397,-0.00009574,-0.00002022,0.00064804,
 0.00044782,0.00086995,0.00015345,0.00094933,-0.00057267,-0.00044715,-0
 .00065028,-0.00151177,-0.00003457,0.00002041,0.00012578,-0.00013871,-0
 .00004370,-0.00002626,-0.00005037,-0.00004503,0.00004504,-0.00077334,0
 .00089516,-0.00006269,-0.00018988,0.00017514,-0.00008687,0.00016644,0.
 00004376,0.00005829,-0.00003160,-0.00005627,0.00000754,0.00015861,-0.0
 0023278,-0.00000185,0.00001040,-0.00004679,0.00000989,0.00001640,-0.00
 005124,0.00000970,0.00070952,-0.00009810,0.00021189,-0.00543874,-0.004
 18718,-0.00289276,-0.03805604,-0.00077992,-0.02002347,0.00599440,-0.01
 959523,-0.02689557,0.03717341,0.02419187,0.05105512\\-0.00002301,-0.00
 001170,0.00004445,-0.00001029,-0.00000307,0.00006206,0.00001497,0.0000
 0142,0.00000737,-0.00002336,-0.00002147,0.00004827,0.00004086,-0.00004
 308,-0.00001561,0.00000521,0.00003321,-0.00002451,-0.00000799,0.000006
 03,0.00002743,-0.00002019,-0.00001044,0.00004715,-0.00000559,-0.000004
 48,0.00002335,-0.00000537,-0.00001110,0.00000786,0.00025674,-0.0000696
 2,0.00009310,0.00000484,0.00002081,-0.00002296,0.00004652,0.00002302,-
 0.00005968,0.00000595,-0.00000354,-0.00001346,0.00002029,-0.00002748,-
 0.00009076,0.00002891,0.00000407,-0.00003918,0.00005172,0.00000625,-0.
 00012162,-0.00054149,0.00010248,0.00023403,0.00018110,0.00012698,-0.00
 069316,0.00004981,-0.00017591,0.00041013,-0.00005904,0.00015048,-0.000
 00671,-0.00001058,-0.00009285,0.00008244\\\@


 PERICLES, SOPHOCLES,
 PELOPONESIAN WAR,
 FRENCH VERBS, LATIN VERBS
 H2SO4.
 Job cpu time:       0 days  0 hours 35 minutes 14.3 seconds.
 Elapsed time:       0 days  0 hours  1 minutes 46.6 seconds.
 File lengths (MBytes):  RWF=   1408 Int=      0 D2E=      0 Chk=     32 Scr=     32
 Normal termination of Gaussian 16 at Tue Mar 19 10:58:18 2019.
