 Entering Gaussian System, Link 0=g16
 Input=rxn902loosebasis.com
 Output=rxn902loosebasis.log
 Initial command:
 /shared/centos7/gaussian/g16/l1.exe "/scratch/dinius.ab/QMscratch/Gau-244463.inp" -scrdir="/scratch/dinius.ab/QMscratch/"
 Default is to use a total of  20 processors:
                               20 via shared-memory
                                1 via Linda
 Entering Link 1 = /shared/centos7/gaussian/g16/l1.exe PID=    244464.
  
 Copyright (c) 1988,1990,1992,1993,1995,1998,2003,2009,2016,
            Gaussian, Inc.  All Rights Reserved.
  
 This is part of the Gaussian(R) 16 program.  It is based on
 the Gaussian(R) 09 system (copyright 2009, Gaussian, Inc.),
 the Gaussian(R) 03 system (copyright 2003, Gaussian, Inc.),
 the Gaussian(R) 98 system (copyright 1998, Gaussian, Inc.),
 the Gaussian(R) 94 system (copyright 1995, Gaussian, Inc.),
 the Gaussian 92(TM) system (copyright 1992, Gaussian, Inc.),
 the Gaussian 90(TM) system (copyright 1990, Gaussian, Inc.),
 the Gaussian 88(TM) system (copyright 1988, Gaussian, Inc.),
 the Gaussian 86(TM) system (copyright 1986, Carnegie Mellon
 University), and the Gaussian 82(TM) system (copyright 1983,
 Carnegie Mellon University). Gaussian is a federally registered
 trademark of Gaussian, Inc.
  
 This software contains proprietary and confidential information,
 including trade secrets, belonging to Gaussian, Inc.
  
 This software is provided under written license and may be
 used, copied, transmitted, or stored only in accord with that
 written license.
  
 The following legend is applicable only to US Government
 contracts under FAR:
  
                    RESTRICTED RIGHTS LEGEND
  
 Use, reproduction and disclosure by the US Government is
 subject to restrictions as set forth in subparagraphs (a)
 and (c) of the Commercial Computer Software - Restricted
 Rights clause in FAR 52.227-19.
  
 Gaussian, Inc.
 340 Quinnipiac St., Bldg. 40, Wallingford CT 06492
  
  
 ---------------------------------------------------------------
 Warning -- This program may not be used in any manner that
 competes with the business of Gaussian, Inc. or will provide
 assistance to any competitor of Gaussian, Inc.  The licensee
 of this program is prohibited from giving any competitor of
 Gaussian, Inc. access to this program.  By using this program,
 the user acknowledges that Gaussian, Inc. is engaged in the
 business of creating and licensing software in the field of
 computational chemistry and represents and warrants to the
 licensee that it is not a competitor of Gaussian, Inc. and that
 it will not use this program in any manner prohibited above.
 ---------------------------------------------------------------
  

 Cite this work as:
 Gaussian 16, Revision A.03,
 M. J. Frisch, G. W. Trucks, H. B. Schlegel, G. E. Scuseria, 
 M. A. Robb, J. R. Cheeseman, G. Scalmani, V. Barone, 
 G. A. Petersson, H. Nakatsuji, X. Li, M. Caricato, A. V. Marenich, 
 J. Bloino, B. G. Janesko, R. Gomperts, B. Mennucci, H. P. Hratchian, 
 J. V. Ortiz, A. F. Izmaylov, J. L. Sonnenberg, D. Williams-Young, 
 F. Ding, F. Lipparini, F. Egidi, J. Goings, B. Peng, A. Petrone, 
 T. Henderson, D. Ranasinghe, V. G. Zakrzewski, J. Gao, N. Rega, 
 G. Zheng, W. Liang, M. Hada, M. Ehara, K. Toyota, R. Fukuda, 
 J. Hasegawa, M. Ishida, T. Nakajima, Y. Honda, O. Kitao, H. Nakai, 
 T. Vreven, K. Throssell, J. A. Montgomery, Jr., J. E. Peralta, 
 F. Ogliaro, M. J. Bearpark, J. J. Heyd, E. N. Brothers, K. N. Kudin, 
 V. N. Staroverov, T. A. Keith, R. Kobayashi, J. Normand, 
 K. Raghavachari, A. P. Rendell, J. C. Burant, S. S. Iyengar, 
 J. Tomasi, M. Cossi, J. M. Millam, M. Klene, C. Adamo, R. Cammi, 
 J. W. Ochterski, R. L. Martin, K. Morokuma, O. Farkas, 
 J. B. Foresman, and D. J. Fox, Gaussian, Inc., Wallingford CT, 2016.
 
 ******************************************
 Gaussian 16:  EM64L-G16RevA.03 25-Dec-2016
                26-Feb-2019 
 ******************************************
 ----------------------------------------------------------------------
 # m062x/6-31G(d,p) Opt=(TS,Loose,maxcycle=1000,CalcFC,NoEigenTest) Int
 (Grid=SG1) freq
 ----------------------------------------------------------------------
 1/5=1,6=1000,7=-1,10=4,11=1,18=20,26=2,38=1/1,3;
 2/9=110,12=2,17=6,18=5,40=1/2;
 3/5=1,6=6,7=101,11=2,25=1,30=1,71=2,74=-55,75=1,140=1/1,2,3;
 4//1;
 5/5=2,38=5/2;
 8/6=4,10=90,11=11/1;
 11/6=1,8=1,9=11,15=111,16=1/1,2,10;
 10/6=1,13=1/2;
 6/7=2,8=2,9=2,10=2,28=1/1;
 7/10=1,18=20,25=1/1,2,3,16;
 1/5=1,6=1000,7=-1,10=4,11=1,18=20,26=2/3(2);
 2/9=110/2;
 99//99;
 2/9=110/2;
 3/5=1,6=6,7=101,11=2,25=1,30=1,71=1,74=-55,75=1/1,2,3;
 4/5=5,16=3,69=1/1;
 5/5=2,38=5/2;
 7//1,2,3,16;
 1/5=1,6=1000,7=-1,11=1,18=20,26=2/3(-5);
 2/9=110/2;
 6/7=2,8=2,9=2,10=2,19=2,28=1/1;
 99/9=1/99;
 -----
 Title
 -----
 Symbolic Z-matrix:
 Charge =  0 Multiplicity = 2
 C                     2.8507   -1.68178   0.07621 
 C                     3.62619  -0.51673   0.09751 
 C                     3.0202    0.71857   0.06023 
 C                     1.61845   0.82247  -0.00025 
 C                     1.47307  -1.6008    0.017 
 C                     0.8453   -0.35686  -0.02123 
 H                     0.85938  -2.48953  -0.00107 
 H                     3.333    -2.64854   0.1023 
 H                     4.70427  -0.58783   0.14015 
 H                     3.61255   1.62322   0.07475 
 C                    -0.62386  -0.26459  -0.08821 
 C                     0.96701   2.08907  -0.04158 
 C                    -0.418     2.18671  -0.10048 
 H                     1.57279   2.98471  -0.02427 
 C                    -1.20778   1.05858  -0.12319 
 H                    -0.8805    3.16337  -0.12388 
 H                    -2.2829    1.11989  -0.15198 
 O                    -1.32552  -1.28371  -0.11527 
 H                    -2.86482  -1.12654  -0.40456 
 O                    -4.01866  -0.7605   -0.53467 
 O                    -4.17942   0.01737   0.64038 
 H                    -4.66135  -0.58128   1.21115 
 
 Add virtual bond connecting atoms O20        and H19        Dist= 2.30D+00.
 Add virtual bond connecting atoms H19        and O18        Dist= 2.97D+00.

 GradGradGradGradGradGradGradGradGradGradGradGradGradGradGradGradGradGrad
 Berny optimization.
 Initialization pass.
                           ----------------------------
                           !    Initial Parameters    !
                           ! (Angstroms and Degrees)  !
 --------------------------                            --------------------------
 ! Name  Definition              Value          Derivative Info.                !
 --------------------------------------------------------------------------------
 ! R1    R(1,2)                  1.3997         calculate D2E/DX2 analytically  !
 ! R2    R(1,5)                  1.3813         calculate D2E/DX2 analytically  !
 ! R3    R(1,8)                  1.0807         calculate D2E/DX2 analytically  !
 ! R4    R(2,3)                  1.3764         calculate D2E/DX2 analytically  !
 ! R5    R(2,9)                  1.0813         calculate D2E/DX2 analytically  !
 ! R6    R(3,4)                  1.4069         calculate D2E/DX2 analytically  !
 ! R7    R(3,10)                 1.0814         calculate D2E/DX2 analytically  !
 ! R8    R(4,6)                  1.4103         calculate D2E/DX2 analytically  !
 ! R9    R(4,12)                 1.4249         calculate D2E/DX2 analytically  !
 ! R10   R(5,6)                  1.3939         calculate D2E/DX2 analytically  !
 ! R11   R(5,7)                  1.0802         calculate D2E/DX2 analytically  !
 ! R12   R(6,11)                 1.4736         calculate D2E/DX2 analytically  !
 ! R13   R(11,15)                1.4467         calculate D2E/DX2 analytically  !
 ! R14   R(11,18)                1.2376         calculate D2E/DX2 analytically  !
 ! R15   R(12,13)                1.3897         calculate D2E/DX2 analytically  !
 ! R16   R(12,14)                1.0814         calculate D2E/DX2 analytically  !
 ! R17   R(13,15)                1.3773         calculate D2E/DX2 analytically  !
 ! R18   R(13,16)                1.0809         calculate D2E/DX2 analytically  !
 ! R19   R(15,17)                1.0773         calculate D2E/DX2 analytically  !
 ! R20   R(18,19)                1.5741         calculate D2E/DX2 analytically  !
 ! R21   R(19,20)                1.2175         calculate D2E/DX2 analytically  !
 ! R22   R(20,21)                1.4183         calculate D2E/DX2 analytically  !
 ! R23   R(21,22)                0.9573         calculate D2E/DX2 analytically  !
 ! A1    A(2,1,5)              120.2934         calculate D2E/DX2 analytically  !
 ! A2    A(2,1,8)              119.7997         calculate D2E/DX2 analytically  !
 ! A3    A(5,1,8)              119.9065         calculate D2E/DX2 analytically  !
 ! A4    A(1,2,3)              120.177          calculate D2E/DX2 analytically  !
 ! A5    A(1,2,9)              119.8859         calculate D2E/DX2 analytically  !
 ! A6    A(3,2,9)              119.9369         calculate D2E/DX2 analytically  !
 ! A7    A(2,3,4)              120.4039         calculate D2E/DX2 analytically  !
 ! A8    A(2,3,10)             120.6134         calculate D2E/DX2 analytically  !
 ! A9    A(4,3,10)             118.9826         calculate D2E/DX2 analytically  !
 ! A10   A(3,4,6)              119.0181         calculate D2E/DX2 analytically  !
 ! A11   A(3,4,12)             121.4935         calculate D2E/DX2 analytically  !
 ! A12   A(6,4,12)             119.4884         calculate D2E/DX2 analytically  !
 ! A13   A(1,5,6)              120.1773         calculate D2E/DX2 analytically  !
 ! A14   A(1,5,7)              121.2732         calculate D2E/DX2 analytically  !
 ! A15   A(6,5,7)              118.5495         calculate D2E/DX2 analytically  !
 ! A16   A(4,6,5)              119.9304         calculate D2E/DX2 analytically  !
 ! A17   A(4,6,11)             119.6618         calculate D2E/DX2 analytically  !
 ! A18   A(5,6,11)             120.4076         calculate D2E/DX2 analytically  !
 ! A19   A(6,11,15)            117.4373         calculate D2E/DX2 analytically  !
 ! A20   A(6,11,18)            120.9762         calculate D2E/DX2 analytically  !
 ! A21   A(15,11,18)           121.5864         calculate D2E/DX2 analytically  !
 ! A22   A(4,12,13)            121.2868         calculate D2E/DX2 analytically  !
 ! A23   A(4,12,14)            118.6616         calculate D2E/DX2 analytically  !
 ! A24   A(13,12,14)           120.0514         calculate D2E/DX2 analytically  !
 ! A25   A(12,13,15)           120.9736         calculate D2E/DX2 analytically  !
 ! A26   A(12,13,16)           119.3964         calculate D2E/DX2 analytically  !
 ! A27   A(15,13,16)           119.6293         calculate D2E/DX2 analytically  !
 ! A28   A(11,15,13)           121.1513         calculate D2E/DX2 analytically  !
 ! A29   A(11,15,17)           117.0984         calculate D2E/DX2 analytically  !
 ! A30   A(13,15,17)           121.7434         calculate D2E/DX2 analytically  !
 ! A31   A(11,18,19)           118.4381         calculate D2E/DX2 analytically  !
 ! A32   A(19,20,21)           100.5896         calculate D2E/DX2 analytically  !
 ! A33   A(20,21,22)           102.0082         calculate D2E/DX2 analytically  !
 ! A34   L(18,19,20,16,-1)     168.2504         calculate D2E/DX2 analytically  !
 ! A35   L(18,19,20,16,-2)     184.2892         calculate D2E/DX2 analytically  !
 ! D1    D(5,1,2,3)              0.033          calculate D2E/DX2 analytically  !
 ! D2    D(5,1,2,9)           -179.7697         calculate D2E/DX2 analytically  !
 ! D3    D(8,1,2,3)            179.7911         calculate D2E/DX2 analytically  !
 ! D4    D(8,1,2,9)             -0.0116         calculate D2E/DX2 analytically  !
 ! D5    D(2,1,5,6)             -0.0354         calculate D2E/DX2 analytically  !
 ! D6    D(2,1,5,7)            179.9452         calculate D2E/DX2 analytically  !
 ! D7    D(8,1,5,6)           -179.7932         calculate D2E/DX2 analytically  !
 ! D8    D(8,1,5,7)              0.1874         calculate D2E/DX2 analytically  !
 ! D9    D(1,2,3,4)             -0.0343         calculate D2E/DX2 analytically  !
 ! D10   D(1,2,3,10)          -179.9011         calculate D2E/DX2 analytically  !
 ! D11   D(9,2,3,4)            179.7683         calculate D2E/DX2 analytically  !
 ! D12   D(9,2,3,10)            -0.0985         calculate D2E/DX2 analytically  !
 ! D13   D(2,3,4,6)              0.0377         calculate D2E/DX2 analytically  !
 ! D14   D(2,3,4,12)          -179.9139         calculate D2E/DX2 analytically  !
 ! D15   D(10,3,4,6)           179.9066         calculate D2E/DX2 analytically  !
 ! D16   D(10,3,4,12)           -0.0449         calculate D2E/DX2 analytically  !
 ! D17   D(3,4,6,5)             -0.0399         calculate D2E/DX2 analytically  !
 ! D18   D(3,4,6,11)          -179.832          calculate D2E/DX2 analytically  !
 ! D19   D(12,4,6,5)           179.9127         calculate D2E/DX2 analytically  !
 ! D20   D(12,4,6,11)            0.1206         calculate D2E/DX2 analytically  !
 ! D21   D(3,4,12,13)         -179.9613         calculate D2E/DX2 analytically  !
 ! D22   D(3,4,12,14)           -0.0833         calculate D2E/DX2 analytically  !
 ! D23   D(6,4,12,13)            0.0874         calculate D2E/DX2 analytically  !
 ! D24   D(6,4,12,14)          179.9653         calculate D2E/DX2 analytically  !
 ! D25   D(1,5,6,4)              0.0391         calculate D2E/DX2 analytically  !
 ! D26   D(1,5,6,11)           179.8297         calculate D2E/DX2 analytically  !
 ! D27   D(7,5,6,4)           -179.942          calculate D2E/DX2 analytically  !
 ! D28   D(7,5,6,11)            -0.1515         calculate D2E/DX2 analytically  !
 ! D29   D(4,6,11,15)           -0.2938         calculate D2E/DX2 analytically  !
 ! D30   D(4,6,11,18)          179.5995         calculate D2E/DX2 analytically  !
 ! D31   D(5,6,11,15)          179.9151         calculate D2E/DX2 analytically  !
 ! D32   D(5,6,11,18)           -0.1916         calculate D2E/DX2 analytically  !
 ! D33   D(6,11,15,13)           0.2741         calculate D2E/DX2 analytically  !
 ! D34   D(6,11,15,17)        -178.7952         calculate D2E/DX2 analytically  !
 ! D35   D(18,11,15,13)       -179.6185         calculate D2E/DX2 analytically  !
 ! D36   D(18,11,15,17)          1.3122         calculate D2E/DX2 analytically  !
 ! D37   D(6,11,18,19)        -170.9131         calculate D2E/DX2 analytically  !
 ! D38   D(15,11,18,19)          8.9757         calculate D2E/DX2 analytically  !
 ! D39   D(4,12,13,15)          -0.1133         calculate D2E/DX2 analytically  !
 ! D40   D(4,12,13,16)         179.5862         calculate D2E/DX2 analytically  !
 ! D41   D(14,12,13,15)       -179.9896         calculate D2E/DX2 analytically  !
 ! D42   D(14,12,13,16)         -0.2901         calculate D2E/DX2 analytically  !
 ! D43   D(12,13,15,11)         -0.0754         calculate D2E/DX2 analytically  !
 ! D44   D(12,13,15,17)        178.9503         calculate D2E/DX2 analytically  !
 ! D45   D(16,13,15,11)       -179.7743         calculate D2E/DX2 analytically  !
 ! D46   D(16,13,15,17)         -0.7486         calculate D2E/DX2 analytically  !
 ! D47   D(11,18,20,21)        -61.1712         calculate D2E/DX2 analytically  !
 ! D48   D(19,20,21,22)       -101.2241         calculate D2E/DX2 analytically  !
 --------------------------------------------------------------------------------
 Trust Radius=3.00D-01 FncErr=1.00D-05 GrdErr=1.00D-04 EigMax=2.50D+02 EigMin=1.00D-04
 Number of steps in this run=    132 maximum allowed number of steps=    132.
 Search for a saddle point of order  1.
 GradGradGradGradGradGradGradGradGradGradGradGradGradGradGradGradGradGrad

                          Input orientation:                          
 ---------------------------------------------------------------------
 Center     Atomic      Atomic             Coordinates (Angstroms)
 Number     Number       Type             X           Y           Z
 ---------------------------------------------------------------------
      1          6           0        2.850700   -1.681780    0.076210
      2          6           0        3.626190   -0.516730    0.097510
      3          6           0        3.020200    0.718570    0.060230
      4          6           0        1.618450    0.822470   -0.000250
      5          6           0        1.473070   -1.600800    0.017000
      6          6           0        0.845300   -0.356860   -0.021230
      7          1           0        0.859380   -2.489530   -0.001070
      8          1           0        3.333000   -2.648540    0.102300
      9          1           0        4.704270   -0.587830    0.140150
     10          1           0        3.612550    1.623220    0.074750
     11          6           0       -0.623860   -0.264590   -0.088210
     12          6           0        0.967010    2.089070   -0.041580
     13          6           0       -0.418000    2.186710   -0.100480
     14          1           0        1.572790    2.984710   -0.024270
     15          6           0       -1.207780    1.058580   -0.123190
     16          1           0       -0.880500    3.163370   -0.123880
     17          1           0       -2.282900    1.119890   -0.151980
     18          8           0       -1.325520   -1.283710   -0.115270
     19          1           0       -2.864820   -1.126540   -0.404560
     20          8           0       -4.018660   -0.760500   -0.534670
     21          8           0       -4.179420    0.017370    0.640380
     22          1           0       -4.661350   -0.581280    1.211150
 ---------------------------------------------------------------------
                    Distance matrix (angstroms):
                    1          2          3          4          5
     1  C    0.000000
     2  C    1.399707   0.000000
     3  C    2.406380   1.376437   0.000000
     4  C    2.792052   2.415374   1.406896   0.000000
     5  C    1.381278   2.411973   2.788361   2.427688   0.000000
     6  C    2.405522   2.788011   2.427628   1.410326   1.393895
     7  H    2.150299   3.399543   3.868437   3.397872   1.080177
     8  H    1.080703   2.151882   3.381870   3.872739   2.136440
     9  H    2.153262   1.081263   2.132876   3.395724   3.388499
    10  H    3.391673   2.140114   1.081425   2.150177   3.869756
    11  C    3.756066   4.261571   3.777276   2.493470   2.488703
    12  C    4.216808   3.725692   2.470673   1.424906   3.724872
    13  C    5.067626   4.868599   3.741989   2.453228   4.234995
    14  H    4.839347   4.060956   2.690265   2.162855   4.586780
    15  C    4.901081   5.088966   4.245594   2.838739   3.778745
    16  H    6.118608   5.822577   4.607212   3.426346   5.315680
    17  H    5.852801   6.136621   5.322496   3.915611   4.640907
    18  O    4.199516   5.015273   4.788028   3.621627   2.819601
    19  H    5.762517   6.538895   6.184975   4.905285   4.384053
    20  O    6.957732   7.674816   7.217140   5.879490   5.582969
    21  O    7.254515   7.842673   7.256913   5.888454   5.912505
    22  H    7.676593   8.362277   7.875306   6.547816   6.332182
                    6          7          8          9         10
     6  C    0.000000
     7  H    2.132812   0.000000
     8  H    3.384628   2.480880   0.000000
     9  H    3.869243   4.291804   2.475548   0.000000
    10  H    3.404057   4.949789   4.280986   2.466753   0.000000
    11  C    1.473578   2.675435   4.623446   5.342808   4.640857
    12  C    2.449041   4.580044   5.297505   4.600645   2.688760
    13  C    2.841119   4.848588   6.122970   5.830405   4.073519
    14  H    3.419845   5.520579   5.903208   4.753551   2.454400
    15  C    2.495797   4.108181   5.866197   6.142666   4.857322
    16  H    3.921854   5.915872   7.182133   6.732820   4.753842
    17  H    3.461722   4.787965   6.767869   7.198763   5.921240
    18  O    2.362277   2.498166   4.859208   6.075184   5.733314
    19  H    3.808456   3.986253   6.402059   7.607762   7.053172
    20  O    4.907612   5.202840   7.616911   8.750697   8.018035
    21  O    5.081888   5.664407   7.989559   8.918321   7.975806
    22  H    5.647328   5.965681   8.331431   9.426660   8.637630
                   11         12         13         14         15
    11  C    0.000000
    12  C    2.841260   0.000000
    13  C    2.459959   1.389696   0.000000
    14  H    3.922666   1.081407   2.146126   0.000000
    15  C    1.446708   2.407962   1.377296   3.383982   0.000000
    16  H    3.437739   2.138735   1.080888   2.461803   2.130083
    17  H    2.161774   3.393142   2.149095   4.284881   1.077252
    18  O    1.237604   4.078820   3.587147   5.160222   2.345261
    19  H    2.421763   5.015458   4.130014   6.061302   2.756755
    20  O    3.459757   5.763687   4.673256   6.749179   3.373339
    21  O    3.640378   5.589522   4.404905   6.506519   3.240031
    22  H    4.253229   6.354411   5.233370   7.287458   4.049290
                   16         17         18         19         20
    16  H    0.000000
    17  H    2.478573   0.000000
    18  O    4.469299   2.587512   0.000000
    19  H    4.734938   2.334283   1.574114   0.000000
    20  O    5.041186   2.587505   2.775365   1.217481   0.000000
    21  O    4.622151   2.332418   3.226230   2.031896   1.418333
    22  H    5.486304   3.226318   3.657945   2.476963   1.868972
                   21         22
    21  O    0.000000
    22  H    0.957297   0.000000
 Stoichiometry    C10H9O3(2)
 Framework group  C1[X(C10H9O3)]
 Deg. of freedom    60
 Full point group                 C1      NOp   1
 Largest Abelian subgroup         C1      NOp   1
 Largest concise Abelian subgroup C1      NOp   1
                         Standard orientation:                         
 ---------------------------------------------------------------------
 Center     Atomic      Atomic             Coordinates (Angstroms)
 Number     Number       Type             X           Y           Z
 ---------------------------------------------------------------------
      1          6           0        2.849885   -1.680817    0.076187
      2          6           0        3.625110   -0.515591    0.097487
      3          6           0        3.018840    0.719571    0.060207
      4          6           0        1.617067    0.823153   -0.000273
      5          6           0        1.472236   -1.600150    0.016977
      6          6           0        0.844184   -0.356352   -0.021253
      7          1           0        0.858748   -2.489019   -0.001093
      8          1           0        3.332404   -2.647468    0.102277
      9          1           0        4.703206   -0.586447    0.140127
     10          1           0        3.610985    1.624355    0.074727
     11          6           0       -0.624997   -0.264416   -0.088233
     12          6           0        0.965339    2.089605   -0.041603
     13          6           0       -0.419693    2.186931   -0.100503
     14          1           0        1.570916    2.985383   -0.024293
     15          6           0       -1.209217    1.058622   -0.123213
     16          1           0       -0.882414    3.163486   -0.123903
     17          1           0       -2.284351    1.119688   -0.152003
     18          8           0       -1.326426   -1.283695   -0.115293
     19          1           0       -2.865761   -1.126874   -0.404583
     20          8           0       -4.019684   -0.761096   -0.534693
     21          8           0       -4.180621    0.016738    0.640357
     22          1           0       -4.662415   -0.582021    1.211127
 ---------------------------------------------------------------------
 Rotational constants (GHZ):           1.7111608           0.4465000           0.3610346
 Standard basis: 6-31G(d,p) (6D, 7F)
 There are   240 symmetry adapted cartesian basis functions of A   symmetry.
 There are   240 symmetry adapted basis functions of A   symmetry.
   240 basis functions,   427 primitive gaussians,   240 cartesian basis functions
    47 alpha electrons       46 beta electrons
       nuclear repulsion energy       726.5002983979 Hartrees.
 NAtoms=   22 NActive=   22 NUniq=   22 SFac= 1.00D+00 NAtFMM=   60 NAOKFM=F Big=F
 Integral buffers will be    131072 words long.
 Raffenetti 2 integral format.
 Two-electron integral symmetry is turned on.
 One-electron integrals computed using PRISM.
 NBasis=   240 RedAO= T EigKep=  2.98D-04  NBF=   240
 NBsUse=   240 1.00D-06 EigRej= -1.00D+00 NBFU=   240
 ExpMin= 1.61D-01 ExpMax= 5.48D+03 ExpMxC= 8.25D+02 IAcc=1 IRadAn=         1 AccDes= 0.00D+00
 Harris functional with IExCor= 1009 and IRadAn=       1 diagonalized for initial guess.
 HarFok:  IExCor= 1009 AccDes= 0.00D+00 IRadAn=         1 IDoV= 1 UseB2=F ITyADJ=14
 ICtDFT=  3500011 ScaDFX=  1.000000  1.000000  1.000000  1.000000
 FoFCou: FMM=F IPFlag=           0 FMFlag=      100000 FMFlg1=           0
         NFxFlg=           0 DoJE=T BraDBF=F KetDBF=T FulRan=T
         wScrn=  0.000000 ICntrl=       500 IOpCl=  0 I1Cent=   200000004 NGrid=           0
         NMat0=    1 NMatS0=      1 NMatT0=    0 NMatD0=    1 NMtDS0=    0 NMtDT0=    0
 Petite list used in FoFCou.
 Initial guess <Sx>= 0.0000 <Sy>= 0.0000 <Sz>= 0.5000 <S**2>= 0.7500 S= 0.5000
 Requested convergence on RMS density matrix=1.00D-08 within 128 cycles.
 Requested convergence on MAX density matrix=1.00D-06.
 Requested convergence on             energy=1.00D-06.
 No special actions if energy rises.
 SCF Done:  E(UM062X) =  -611.759450115     A.U. after   19 cycles
            NFock= 19  Conv=0.46D-08     -V/T= 2.0083
 <Sx>= 0.0000 <Sy>= 0.0000 <Sz>= 0.5000 <S**2>= 0.7836 S= 0.5166
 <L.S>= 0.000000000000E+00
 Annihilation of the first spin contaminant:
 S**2 before annihilation     0.7836,   after     0.7507
 DoSCS=F DFT=T ScalE2(SS,OS)=  1.000000  1.000000
 Range of M.O.s used for correlation:     1   240
 NBasis=   240 NAE=    47 NBE=    46 NFC=     0 NFV=     0
 NROrb=    240 NOA=    47 NOB=    46 NVA=   193 NVB=   194

 **** Warning!!: The largest alpha MO coefficient is  0.11064436D+02


 **** Warning!!: The largest beta MO coefficient is  0.10482273D+02

 Symmetrizing basis deriv contribution to polar:
 IMax=3 JMax=2 DiffMx= 0.00D+00
 G2DrvN: will do    23 centers at a time, making    1 passes.
 Calling FoFCou, ICntrl=  3107 FMM=F I1Cent=   0 AccDes= 0.00D+00.
 End of G2Drv F.D. properties file   721 does not exist.
 End of G2Drv F.D. properties file   722 does not exist.
 End of G2Drv F.D. properties file   788 does not exist.
          IDoAtm=1111111111111111111111
          Differentiating once with respect to nuclear coordinates.
 Keep R1 and R2 ints in memory in canonical form, NReq=857760080.
          There are    69 degrees of freedom in the 1st order CPHF.  IDoFFX=6 NUNeed=     0.
     63 vectors produced by pass  0 Test12= 2.61D-14 1.45D-09 XBig12= 3.02D-01 1.59D-01.
 AX will form    63 AO Fock derivatives at one time.
     63 vectors produced by pass  1 Test12= 2.61D-14 1.45D-09 XBig12= 3.67D-02 4.03D-02.
     63 vectors produced by pass  2 Test12= 2.61D-14 1.45D-09 XBig12= 1.31D-03 7.91D-03.
     63 vectors produced by pass  3 Test12= 2.61D-14 1.45D-09 XBig12= 1.37D-05 7.37D-04.
     63 vectors produced by pass  4 Test12= 2.61D-14 1.45D-09 XBig12= 1.06D-07 4.00D-05.
     63 vectors produced by pass  5 Test12= 2.61D-14 1.45D-09 XBig12= 8.16D-10 3.41D-06.
     63 vectors produced by pass  6 Test12= 2.61D-14 1.45D-09 XBig12= 4.69D-12 2.16D-07.
     33 vectors produced by pass  7 Test12= 2.61D-14 1.45D-09 XBig12= 2.28D-14 1.36D-08.
 InvSVY:  IOpt=1 It=  1 EMax= 9.99D-16
 Solved reduced A of dimension   474 with    69 vectors.
 End of Minotr F.D. properties file   721 does not exist.
 End of Minotr F.D. properties file   722 does not exist.
 End of Minotr F.D. properties file   788 does not exist.

 **********************************************************************

            Population analysis using the SCF density.

 **********************************************************************

 Orbital symmetries:
 Alpha Orbitals:
       Occupied  (A) (A) (A) (A) (A) (A) (A) (A) (A) (A) (A) (A)
                 (A) (A) (A) (A) (A) (A) (A) (A) (A) (A) (A) (A)
                 (A) (A) (A) (A) (A) (A) (A) (A) (A) (A) (A) (A)
                 (A) (A) (A) (A) (A) (A) (A) (A) (A) (A) (A)
       Virtual   (A) (A) (A) (A) (A) (A) (A) (A) (A) (A) (A) (A)
                 (A) (A) (A) (A) (A) (A) (A) (A) (A) (A) (A) (A)
                 (A) (A) (A) (A) (A) (A) (A) (A) (A) (A) (A) (A)
                 (A) (A) (A) (A) (A) (A) (A) (A) (A) (A) (A) (A)
                 (A) (A) (A) (A) (A) (A) (A) (A) (A) (A) (A) (A)
                 (A) (A) (A) (A) (A) (A) (A) (A) (A) (A) (A) (A)
                 (A) (A) (A) (A) (A) (A) (A) (A) (A) (A) (A) (A)
                 (A) (A) (A) (A) (A) (A) (A) (A) (A) (A) (A) (A)
                 (A) (A) (A) (A) (A) (A) (A) (A) (A) (A) (A) (A)
                 (A) (A) (A) (A) (A) (A) (A) (A) (A) (A) (A) (A)
                 (A) (A) (A) (A) (A) (A) (A) (A) (A) (A) (A) (A)
                 (A) (A) (A) (A) (A) (A) (A) (A) (A) (A) (A) (A)
                 (A) (A) (A) (A) (A) (A) (A) (A) (A) (A) (A) (A)
                 (A) (A) (A) (A) (A) (A) (A) (A) (A) (A) (A) (A)
                 (A) (A) (A) (A) (A) (A) (A) (A) (A) (A) (A) (A)
                 (A) (A) (A) (A) (A) (A) (A) (A) (A) (A) (A) (A)
                 (A)
 Beta  Orbitals:
       Occupied  (A) (A) (A) (A) (A) (A) (A) (A) (A) (A) (A) (A)
                 (A) (A) (A) (A) (A) (A) (A) (A) (A) (A) (A) (A)
                 (A) (A) (A) (A) (A) (A) (A) (A) (A) (A) (A) (A)
                 (A) (A) (A) (A) (A) (A) (A) (A) (A) (A)
       Virtual   (A) (A) (A) (A) (A) (A) (A) (A) (A) (A) (A) (A)
                 (A) (A) (A) (A) (A) (A) (A) (A) (A) (A) (A) (A)
                 (A) (A) (A) (A) (A) (A) (A) (A) (A) (A) (A) (A)
                 (A) (A) (A) (A) (A) (A) (A) (A) (A) (A) (A) (A)
                 (A) (A) (A) (A) (A) (A) (A) (A) (A) (A) (A) (A)
                 (A) (A) (A) (A) (A) (A) (A) (A) (A) (A) (A) (A)
                 (A) (A) (A) (A) (A) (A) (A) (A) (A) (A) (A) (A)
                 (A) (A) (A) (A) (A) (A) (A) (A) (A) (A) (A) (A)
                 (A) (A) (A) (A) (A) (A) (A) (A) (A) (A) (A) (A)
                 (A) (A) (A) (A) (A) (A) (A) (A) (A) (A) (A) (A)
                 (A) (A) (A) (A) (A) (A) (A) (A) (A) (A) (A) (A)
                 (A) (A) (A) (A) (A) (A) (A) (A) (A) (A) (A) (A)
                 (A) (A) (A) (A) (A) (A) (A) (A) (A) (A) (A) (A)
                 (A) (A) (A) (A) (A) (A) (A) (A) (A) (A) (A) (A)
                 (A) (A) (A) (A) (A) (A) (A) (A) (A) (A) (A) (A)
                 (A) (A) (A) (A) (A) (A) (A) (A) (A) (A) (A) (A)
                 (A) (A)
 The electronic state is 2-A.
 Alpha  occ. eigenvalues --  -19.66135 -19.64571 -19.63185 -10.64772 -10.59848
 Alpha  occ. eigenvalues --  -10.58615 -10.58004 -10.57998 -10.57975 -10.57889
 Alpha  occ. eigenvalues --  -10.57684 -10.57612 -10.57295  -1.19081  -1.18288
 Alpha  occ. eigenvalues --   -1.00369  -0.94923  -0.91719  -0.88455  -0.86684
 Alpha  occ. eigenvalues --   -0.82593  -0.73426  -0.72395  -0.68858  -0.61998
 Alpha  occ. eigenvalues --   -0.61061  -0.59519  -0.56230  -0.54879  -0.54112
 Alpha  occ. eigenvalues --   -0.52390  -0.51772  -0.51238  -0.49396  -0.48732
 Alpha  occ. eigenvalues --   -0.46610  -0.46387  -0.44786  -0.43300  -0.42031
 Alpha  occ. eigenvalues --   -0.41682  -0.36394  -0.34296  -0.32808  -0.31050
 Alpha  occ. eigenvalues --   -0.29556  -0.26793
 Alpha virt. eigenvalues --   -0.02499   0.00078   0.05381   0.12353   0.12393
 Alpha virt. eigenvalues --    0.14095   0.15248   0.17062   0.17593   0.19869
 Alpha virt. eigenvalues --    0.21332   0.22049   0.23576   0.23859   0.25263
 Alpha virt. eigenvalues --    0.27363   0.28417   0.32081   0.33759   0.33993
 Alpha virt. eigenvalues --    0.34733   0.39012   0.39380   0.50393   0.51278
 Alpha virt. eigenvalues --    0.52934   0.53609   0.54581   0.56790   0.56860
 Alpha virt. eigenvalues --    0.57872   0.59209   0.61356   0.61625   0.63345
 Alpha virt. eigenvalues --    0.63489   0.63598   0.64279   0.64812   0.65266
 Alpha virt. eigenvalues --    0.66559   0.70025   0.71415   0.72088   0.73276
 Alpha virt. eigenvalues --    0.78169   0.78529   0.82338   0.85205   0.86155
 Alpha virt. eigenvalues --    0.86741   0.86941   0.87187   0.87577   0.88339
 Alpha virt. eigenvalues --    0.90494   0.91607   0.93348   0.95490   0.96932
 Alpha virt. eigenvalues --    0.98026   0.99669   1.01541   1.03317   1.04918
 Alpha virt. eigenvalues --    1.06594   1.07832   1.08509   1.09495   1.11478
 Alpha virt. eigenvalues --    1.12125   1.15013   1.17494   1.20760   1.24016
 Alpha virt. eigenvalues --    1.24883   1.27527   1.27982   1.29267   1.32960
 Alpha virt. eigenvalues --    1.35985   1.36748   1.38534   1.39199   1.39964
 Alpha virt. eigenvalues --    1.42073   1.42996   1.43694   1.44629   1.45594
 Alpha virt. eigenvalues --    1.46891   1.48703   1.49608   1.51542   1.55186
 Alpha virt. eigenvalues --    1.62170   1.63895   1.70076   1.73903   1.74998
 Alpha virt. eigenvalues --    1.77659   1.79959   1.80533   1.82717   1.84902
 Alpha virt. eigenvalues --    1.87816   1.88139   1.89120   1.90949   1.91543
 Alpha virt. eigenvalues --    1.93621   1.94678   1.97852   1.99828   2.00010
 Alpha virt. eigenvalues --    2.02833   2.03515   2.03685   2.04711   2.08098
 Alpha virt. eigenvalues --    2.11033   2.14735   2.18964   2.20903   2.23454
 Alpha virt. eigenvalues --    2.24405   2.27403   2.27673   2.28815   2.30686
 Alpha virt. eigenvalues --    2.33847   2.36952   2.37506   2.39016   2.40133
 Alpha virt. eigenvalues --    2.40350   2.43402   2.43606   2.44643   2.47097
 Alpha virt. eigenvalues --    2.49075   2.50175   2.51056   2.53608   2.54586
 Alpha virt. eigenvalues --    2.56516   2.58203   2.58569   2.60633   2.61939
 Alpha virt. eigenvalues --    2.63223   2.65044   2.66925   2.70121   2.72439
 Alpha virt. eigenvalues --    2.73706   2.74424   2.76681   2.79071   2.81166
 Alpha virt. eigenvalues --    2.85616   2.92231   2.97444   3.01541   3.03644
 Alpha virt. eigenvalues --    3.06138   3.08761   3.14594   3.17574   3.22282
 Alpha virt. eigenvalues --    3.23694   3.24661   3.32299   3.37197   3.39714
 Alpha virt. eigenvalues --    3.44434   3.47539   3.48153   3.76122   3.76582
 Alpha virt. eigenvalues --    3.86368   3.91818   4.03123   4.10905   4.13604
 Alpha virt. eigenvalues --    4.15539   4.17713   4.30718   4.40805   4.44664
 Alpha virt. eigenvalues --    4.58798   4.67449   4.92755
  Beta  occ. eigenvalues --  -19.65596 -19.64571 -19.63191 -10.64810 -10.59544
  Beta  occ. eigenvalues --  -10.58692 -10.58107 -10.57935 -10.57915 -10.57691
  Beta  occ. eigenvalues --  -10.57655 -10.57571 -10.57317  -1.18736  -1.17242
  Beta  occ. eigenvalues --   -1.00037  -0.94416  -0.91728  -0.88061  -0.86487
  Beta  occ. eigenvalues --   -0.81541  -0.73209  -0.72079  -0.68480  -0.61595
  Beta  occ. eigenvalues --   -0.60664  -0.59136  -0.55860  -0.54748  -0.53800
  Beta  occ. eigenvalues --   -0.51643  -0.51014  -0.50077  -0.49179  -0.48474
  Beta  occ. eigenvalues --   -0.46088  -0.44823  -0.44458  -0.43019  -0.41890
  Beta  occ. eigenvalues --   -0.39073  -0.35772  -0.32515  -0.32085  -0.30985
  Beta  occ. eigenvalues --   -0.29454
  Beta virt. eigenvalues --   -0.11651  -0.00885   0.01512   0.07336   0.12574
  Beta virt. eigenvalues --    0.13631   0.14257   0.15332   0.17159   0.17694
  Beta virt. eigenvalues --    0.19960   0.21464   0.22179   0.23759   0.24568
  Beta virt. eigenvalues --    0.25505   0.27682   0.28911   0.32305   0.34095
  Beta virt. eigenvalues --    0.34281   0.34957   0.39226   0.39624   0.50646
  Beta virt. eigenvalues --    0.51759   0.53622   0.54240   0.55084   0.57042
  Beta virt. eigenvalues --    0.57325   0.58022   0.60139   0.61716   0.62342
  Beta virt. eigenvalues --    0.63709   0.63849   0.63942   0.64540   0.65072
  Beta virt. eigenvalues --    0.65890   0.67042   0.70496   0.71790   0.72292
  Beta virt. eigenvalues --    0.73622   0.78404   0.78901   0.82795   0.85863
  Beta virt. eigenvalues --    0.86176   0.86972   0.87026   0.87319   0.88174
  Beta virt. eigenvalues --    0.88481   0.90835   0.91752   0.93748   0.96008
  Beta virt. eigenvalues --    0.97349   0.98742   1.00166   1.01790   1.03574
  Beta virt. eigenvalues --    1.05269   1.06935   1.08003   1.09654   1.09724
  Beta virt. eigenvalues --    1.11713   1.12726   1.15282   1.17723   1.20971
  Beta virt. eigenvalues --    1.24324   1.26019   1.28032   1.28247   1.29454
  Beta virt. eigenvalues --    1.33193   1.36889   1.37138   1.39128   1.39908
  Beta virt. eigenvalues --    1.40355   1.42643   1.43809   1.44291   1.45011
  Beta virt. eigenvalues --    1.46191   1.47478   1.48934   1.49799   1.51784
  Beta virt. eigenvalues --    1.55226   1.62290   1.64110   1.70233   1.74351
  Beta virt. eigenvalues --    1.75591   1.78193   1.80221   1.80909   1.83400
  Beta virt. eigenvalues --    1.86001   1.88771   1.88802   1.89667   1.91355
  Beta virt. eigenvalues --    1.91980   1.94091   1.95249   1.98643   2.00322
  Beta virt. eigenvalues --    2.00666   2.03163   2.04122   2.04397   2.05202
  Beta virt. eigenvalues --    2.08716   2.11274   2.14789   2.19457   2.21174
  Beta virt. eigenvalues --    2.24141   2.24458   2.28084   2.28637   2.29751
  Beta virt. eigenvalues --    2.31130   2.34664   2.37249   2.38039   2.39238
  Beta virt. eigenvalues --    2.40504   2.40841   2.43943   2.44194   2.44920
  Beta virt. eigenvalues --    2.47547   2.49726   2.50622   2.51450   2.53808
  Beta virt. eigenvalues --    2.55056   2.57045   2.59082   2.59204   2.60944
  Beta virt. eigenvalues --    2.62634   2.63824   2.65627   2.67769   2.70639
  Beta virt. eigenvalues --    2.72664   2.74247   2.74736   2.77360   2.79543
  Beta virt. eigenvalues --    2.81722   2.85976   2.92240   2.98278   3.01768
  Beta virt. eigenvalues --    3.03934   3.07045   3.09197   3.15371   3.17962
  Beta virt. eigenvalues --    3.22425   3.24048   3.25352   3.32655   3.37874
  Beta virt. eigenvalues --    3.40999   3.44950   3.47798   3.48259   3.76351
  Beta virt. eigenvalues --    3.77601   3.86887   3.91841   4.03907   4.11729
  Beta virt. eigenvalues --    4.14169   4.16059   4.18140   4.32247   4.41245
  Beta virt. eigenvalues --    4.45373   4.59681   4.67871   4.93358
          Condensed to atoms (all electrons):
               1          2          3          4          5          6
     1  C    4.863771   0.524618  -0.033252  -0.036581   0.513260  -0.025857
     2  C    0.524618   4.836950   0.533175  -0.023746  -0.030549  -0.039326
     3  C   -0.033252   0.533175   4.956017   0.497991  -0.060632  -0.032392
     4  C   -0.036581  -0.023746   0.497991   4.722541  -0.055129   0.530651
     5  C    0.513260  -0.030549  -0.060632  -0.055129   4.954208   0.487263
     6  C   -0.025857  -0.039326  -0.032392   0.530651   0.487263   4.986344
     7  H   -0.036076   0.003624   0.000494   0.004232   0.376769  -0.034818
     8  H    0.378361  -0.036133   0.003620   0.001111  -0.031761   0.002493
     9  H   -0.035176   0.376734  -0.030971   0.002606   0.003403   0.001036
    10  H    0.003918  -0.035569   0.375351  -0.039536   0.000580   0.003860
    11  C    0.006651  -0.000430   0.009680  -0.017081  -0.065366   0.351242
    12  C   -0.000446   0.007577  -0.077975   0.441406   0.013101  -0.041590
    13  C    0.000068  -0.000336   0.007761  -0.019995  -0.002023  -0.022704
    14  H    0.000013   0.000210  -0.005540  -0.037172  -0.000166   0.003696
    15  C   -0.000257   0.000034  -0.001015  -0.034966   0.012991  -0.084534
    16  H   -0.000000   0.000002  -0.000181   0.002407   0.000016   0.000678
    17  H    0.000001   0.000000  -0.000000   0.000226  -0.000085   0.004740
    18  O    0.000726  -0.000005  -0.000071   0.003756   0.001137  -0.086141
    19  H    0.000001  -0.000000   0.000001   0.000006  -0.000066   0.000551
    20  O    0.000000   0.000000  -0.000000  -0.000000   0.000003  -0.000041
    21  O   -0.000000   0.000000  -0.000000  -0.000001   0.000000   0.000037
    22  H    0.000000   0.000000  -0.000000  -0.000000  -0.000000   0.000001
               7          8          9         10         11         12
     1  C   -0.036076   0.378361  -0.035176   0.003918   0.006651  -0.000446
     2  C    0.003624  -0.036133   0.376734  -0.035569  -0.000430   0.007577
     3  C    0.000494   0.003620  -0.030971   0.375351   0.009680  -0.077975
     4  C    0.004232   0.001111   0.002606  -0.039536  -0.017081   0.441406
     5  C    0.376769  -0.031761   0.003403   0.000580  -0.065366   0.013101
     6  C   -0.034818   0.002493   0.001036   0.003860   0.351242  -0.041590
     7  H    0.525034  -0.003892  -0.000147   0.000017  -0.008608  -0.000153
     8  H   -0.003892   0.551550  -0.004400  -0.000163  -0.000162   0.000012
     9  H   -0.000147  -0.004400   0.555706  -0.004569   0.000012  -0.000187
    10  H    0.000017  -0.000163  -0.004569   0.563705  -0.000147  -0.006193
    11  C   -0.008608  -0.000162   0.000012  -0.000147   4.579930  -0.049726
    12  C   -0.000153   0.000012  -0.000187  -0.006193  -0.049726   5.023156
    13  C   -0.000034  -0.000001   0.000003   0.000229  -0.010415   0.483375
    14  H    0.000002  -0.000000  -0.000010   0.004811   0.000539   0.374868
    15  C    0.000593   0.000003  -0.000000   0.000022   0.406807  -0.030453
    16  H    0.000000  -0.000000  -0.000000  -0.000006   0.002235  -0.032642
    17  H   -0.000001  -0.000000   0.000000   0.000000  -0.024903   0.004083
    18  O    0.010575   0.000001   0.000000   0.000000   0.434684  -0.000008
    19  H   -0.000039  -0.000000   0.000000  -0.000000  -0.010274  -0.000013
    20  O    0.000002   0.000000   0.000000   0.000000  -0.000700   0.000001
    21  O    0.000000  -0.000000   0.000000  -0.000000   0.000799  -0.000001
    22  H   -0.000000  -0.000000   0.000000   0.000000  -0.000000   0.000000
              13         14         15         16         17         18
     1  C    0.000068   0.000013  -0.000257  -0.000000   0.000001   0.000726
     2  C   -0.000336   0.000210   0.000034   0.000002   0.000000  -0.000005
     3  C    0.007761  -0.005540  -0.001015  -0.000181  -0.000000  -0.000071
     4  C   -0.019995  -0.037172  -0.034966   0.002407   0.000226   0.003756
     5  C   -0.002023  -0.000166   0.012991   0.000016  -0.000085   0.001137
     6  C   -0.022704   0.003696  -0.084534   0.000678   0.004740  -0.086141
     7  H   -0.000034   0.000002   0.000593   0.000000  -0.000001   0.010575
     8  H   -0.000001  -0.000000   0.000003  -0.000000  -0.000000   0.000001
     9  H    0.000003  -0.000010  -0.000000  -0.000000   0.000000   0.000000
    10  H    0.000229   0.004811   0.000022  -0.000006   0.000000   0.000000
    11  C   -0.010415   0.000539   0.406807   0.002235  -0.024903   0.434684
    12  C    0.483375   0.374868  -0.030453  -0.032642   0.004083  -0.000008
    13  C    4.910959  -0.033922   0.466956   0.376497  -0.028453   0.005949
    14  H   -0.033922   0.547957   0.003777  -0.003957  -0.000128   0.000002
    15  C    0.466956   0.003777   5.117885  -0.025370   0.364188  -0.072455
    16  H    0.376497  -0.003957  -0.025370   0.533137  -0.004112  -0.000065
    17  H   -0.028453  -0.000128   0.364188  -0.004112   0.480903  -0.004720
    18  O    0.005949   0.000002  -0.072455  -0.000065  -0.004720   8.228169
    19  H    0.000187  -0.000000   0.000372  -0.000003  -0.000200   0.055573
    20  O    0.000159   0.000000   0.000923  -0.000000   0.004702  -0.025835
    21  O   -0.000031   0.000000  -0.004264   0.000001   0.007987   0.002156
    22  H    0.000005  -0.000000   0.000249  -0.000000  -0.000186   0.000047
              19         20         21         22
     1  C    0.000001   0.000000  -0.000000   0.000000
     2  C   -0.000000   0.000000   0.000000   0.000000
     3  C    0.000001  -0.000000  -0.000000  -0.000000
     4  C    0.000006  -0.000000  -0.000001  -0.000000
     5  C   -0.000066   0.000003   0.000000  -0.000000
     6  C    0.000551  -0.000041   0.000037   0.000001
     7  H   -0.000039   0.000002   0.000000  -0.000000
     8  H   -0.000000   0.000000  -0.000000  -0.000000
     9  H    0.000000   0.000000   0.000000   0.000000
    10  H   -0.000000   0.000000  -0.000000   0.000000
    11  C   -0.010274  -0.000700   0.000799  -0.000000
    12  C   -0.000013   0.000001  -0.000001   0.000000
    13  C    0.000187   0.000159  -0.000031   0.000005
    14  H   -0.000000   0.000000   0.000000  -0.000000
    15  C    0.000372   0.000923  -0.004264   0.000249
    16  H   -0.000003  -0.000000   0.000001  -0.000000
    17  H   -0.000200   0.004702   0.007987  -0.000186
    18  O    0.055573  -0.025835   0.002156   0.000047
    19  H    0.369701   0.210323  -0.031528   0.000247
    20  O    0.210323   8.259088   0.033262  -0.027399
    21  O   -0.031528   0.033262   8.095260   0.282164
    22  H    0.000247  -0.027399   0.282164   0.403842
          Atomic-Atomic Spin Densities.
               1          2          3          4          5          6
     1  C    0.105238  -0.011624  -0.004814   0.000266   0.016536  -0.004746
     2  C   -0.011624  -0.047207   0.009751   0.002109  -0.000254   0.000839
     3  C   -0.004814   0.009751   0.105889  -0.004006  -0.000771   0.003167
     4  C    0.000266   0.002109  -0.004006  -0.106746   0.001546   0.002594
     5  C    0.016536  -0.000254  -0.000771   0.001546  -0.031027  -0.018210
     6  C   -0.004746   0.000839   0.003167   0.002594  -0.018210   0.091784
     7  H   -0.000349  -0.000010   0.000003  -0.000073   0.000860   0.000065
     8  H    0.000132   0.000143   0.000006  -0.000007   0.000172   0.000032
     9  H   -0.000224   0.000313  -0.000149  -0.000046  -0.000025   0.000004
    10  H    0.000026   0.000165   0.000177   0.000363  -0.000008   0.000047
    11  C   -0.000250  -0.000001   0.000137   0.001285  -0.000493   0.028055
    12  C    0.000150  -0.000110  -0.011061  -0.004378   0.000436  -0.009709
    13  C    0.000002   0.000003  -0.000060  -0.000122   0.000072  -0.001530
    14  H   -0.000001  -0.000007  -0.000462   0.000361   0.000008   0.000125
    15  C   -0.000024   0.000007   0.000130  -0.000704  -0.000475   0.004887
    16  H   -0.000000   0.000000  -0.000002  -0.000063   0.000000   0.000011
    17  H   -0.000000   0.000000   0.000000  -0.000022  -0.000000  -0.000009
    18  O    0.000012  -0.000001  -0.000004  -0.000046   0.000990  -0.003810
    19  H    0.000000  -0.000000  -0.000000   0.000001   0.000003  -0.000053
    20  O   -0.000000   0.000000   0.000000  -0.000000  -0.000000   0.000002
    21  O    0.000000  -0.000000  -0.000000   0.000000   0.000000  -0.000000
    22  H    0.000000  -0.000000   0.000000   0.000000   0.000000  -0.000000
               7          8          9         10         11         12
     1  C   -0.000349   0.000132  -0.000224   0.000026  -0.000250   0.000150
     2  C   -0.000010   0.000143   0.000313   0.000165  -0.000001  -0.000110
     3  C    0.000003   0.000006  -0.000149   0.000177   0.000137  -0.011061
     4  C   -0.000073  -0.000007  -0.000046   0.000363   0.001285  -0.004378
     5  C    0.000860   0.000172  -0.000025  -0.000008  -0.000493   0.000436
     6  C    0.000065   0.000032   0.000004   0.000047   0.028055  -0.009709
     7  H    0.000340  -0.000019  -0.000001  -0.000000   0.000034  -0.000003
     8  H   -0.000019  -0.005255   0.000009   0.000002   0.000001   0.000000
     9  H   -0.000001   0.000009   0.001581  -0.000021   0.000000  -0.000003
    10  H   -0.000000   0.000002  -0.000021  -0.004844   0.000001  -0.000297
    11  C    0.000034   0.000001   0.000000   0.000001  -0.036058  -0.004364
    12  C   -0.000003   0.000000  -0.000003  -0.000297  -0.004364   0.504579
    13  C    0.000002   0.000000   0.000000  -0.000010  -0.000317   0.019565
    14  H   -0.000000  -0.000000  -0.000000  -0.000083  -0.000052   0.000821
    15  C   -0.000008  -0.000000  -0.000000  -0.000000   0.042910  -0.020289
    16  H   -0.000000   0.000000  -0.000000  -0.000000  -0.000044  -0.001132
    17  H    0.000000   0.000000  -0.000000  -0.000000   0.000219   0.000047
    18  O   -0.000508  -0.000000  -0.000000  -0.000000  -0.056679   0.000127
    19  H    0.000003   0.000000  -0.000000   0.000000   0.000342   0.000000
    20  O   -0.000000  -0.000000  -0.000000  -0.000000   0.000009  -0.000000
    21  O    0.000000   0.000000   0.000000   0.000000  -0.000024   0.000000
    22  H    0.000000   0.000000  -0.000000  -0.000000  -0.000002  -0.000000
              13         14         15         16         17         18
     1  C    0.000002  -0.000001  -0.000024  -0.000000  -0.000000   0.000012
     2  C    0.000003  -0.000007   0.000007   0.000000   0.000000  -0.000001
     3  C   -0.000060  -0.000462   0.000130  -0.000002   0.000000  -0.000004
     4  C   -0.000122   0.000361  -0.000704  -0.000063  -0.000022  -0.000046
     5  C    0.000072   0.000008  -0.000475   0.000000  -0.000000   0.000990
     6  C   -0.001530   0.000125   0.004887   0.000011  -0.000009  -0.003810
     7  H    0.000002  -0.000000  -0.000008  -0.000000   0.000000  -0.000508
     8  H    0.000000  -0.000000  -0.000000   0.000000   0.000000  -0.000000
     9  H    0.000000  -0.000000  -0.000000  -0.000000  -0.000000  -0.000000
    10  H   -0.000010  -0.000083  -0.000000  -0.000000  -0.000000  -0.000000
    11  C   -0.000317  -0.000052   0.042910  -0.000044   0.000219  -0.056679
    12  C    0.019565   0.000821  -0.020289  -0.001132   0.000047   0.000127
    13  C   -0.176824   0.000036  -0.022113   0.001490   0.000422   0.000051
    14  H    0.000036  -0.021531   0.000119  -0.000051   0.000006  -0.000000
    15  C   -0.022113   0.000119   0.405444  -0.001010  -0.001592  -0.010873
    16  H    0.001490  -0.000051  -0.001010   0.005299  -0.000009   0.000000
    17  H    0.000422   0.000006  -0.001592  -0.000009  -0.017507   0.000018
    18  O    0.000051  -0.000000  -0.010873   0.000000   0.000018   0.345992
    19  H   -0.000009  -0.000000   0.000016   0.000000  -0.000076  -0.003459
    20  O    0.000001  -0.000000  -0.000005  -0.000000   0.000095   0.000458
    21  O   -0.000001  -0.000000  -0.000083  -0.000000   0.000342  -0.000006
    22  H    0.000000   0.000000   0.000005   0.000000  -0.000017  -0.000003
              19         20         21         22
     1  C    0.000000  -0.000000   0.000000   0.000000
     2  C   -0.000000   0.000000  -0.000000  -0.000000
     3  C   -0.000000   0.000000  -0.000000   0.000000
     4  C    0.000001  -0.000000   0.000000   0.000000
     5  C    0.000003  -0.000000   0.000000   0.000000
     6  C   -0.000053   0.000002  -0.000000  -0.000000
     7  H    0.000003  -0.000000   0.000000   0.000000
     8  H    0.000000  -0.000000   0.000000   0.000000
     9  H   -0.000000  -0.000000   0.000000  -0.000000
    10  H    0.000000  -0.000000   0.000000  -0.000000
    11  C    0.000342   0.000009  -0.000024  -0.000002
    12  C    0.000000  -0.000000   0.000000  -0.000000
    13  C   -0.000009   0.000001  -0.000001   0.000000
    14  H   -0.000000  -0.000000  -0.000000   0.000000
    15  C    0.000016  -0.000005  -0.000083   0.000005
    16  H    0.000000  -0.000000  -0.000000   0.000000
    17  H   -0.000076   0.000095   0.000342  -0.000017
    18  O   -0.003459   0.000458  -0.000006  -0.000003
    19  H   -0.000594   0.001490  -0.000143   0.000005
    20  O    0.001490  -0.004010   0.000091  -0.000009
    21  O   -0.000143   0.000091   0.000044   0.000047
    22  H    0.000005  -0.000009   0.000047  -0.000099
 Mulliken charges and spin densities:
               1          2
     1  C   -0.123742   0.100331
     2  C   -0.116828  -0.045883
     3  C   -0.142059   0.097932
     4  C    0.057275  -0.107687
     5  C   -0.116954  -0.030638
     6  C   -0.005189   0.093545
     7  H    0.162427   0.000337
     8  H    0.139363  -0.004783
     9  H    0.135960   0.001439
    10  H    0.133691  -0.004481
    11  C    0.395234  -0.025288
    12  C   -0.108191   0.474380
    13  C   -0.134234  -0.179342
    14  H    0.145020  -0.020712
    15  C   -0.121486   0.396340
    16  H    0.151364   0.004490
    17  H    0.195958  -0.018081
    18  O   -0.553474   0.272259
    19  H    0.405163  -0.002473
    20  O   -0.454487  -0.001878
    21  O   -0.385840   0.000268
    22  H    0.341029  -0.000073
 Sum of Mulliken charges =  -0.00000   1.00000
 Mulliken charges and spin densities with hydrogens summed into heavy atoms:
               1          2
     1  C    0.015621   0.095548
     2  C    0.019133  -0.044444
     3  C   -0.008368   0.093451
     4  C    0.057275  -0.107687
     5  C    0.045473  -0.030301
     6  C   -0.005189   0.093545
    11  C    0.395234  -0.025288
    12  C    0.036829   0.453668
    13  C    0.017130  -0.174852
    15  C    0.074472   0.378259
    18  O   -0.553474   0.272259
    20  O   -0.049324  -0.004351
    21  O   -0.044811   0.000195
 APT charges:
               1
     1  C   -0.461774
     2  C   -0.492464
     3  C   -0.473496
     4  C   -0.372936
     5  C   -0.467961
     6  C   -0.454688
     7  H    0.412878
     8  H    0.763293
     9  H    0.897270
    10  H    0.668617
    11  C   -0.165950
    12  C   -0.436081
    13  C   -0.525666
    14  H    0.678265
    15  C   -0.518963
    16  H    0.679501
    17  H    0.544915
    18  O   -0.207303
    19  H    0.129304
    20  O   -0.083249
    21  O   -1.068165
    22  H    0.954655
 Sum of APT charges =  -0.00000
 APT charges with hydrogens summed into heavy atoms:
               1
     1  C    0.301519
     2  C    0.404806
     3  C    0.195121
     4  C   -0.372936
     5  C   -0.055084
     6  C   -0.454688
    11  C   -0.165950
    12  C    0.242184
    13  C    0.153835
    15  C    0.025952
    18  O   -0.207303
    20  O    0.046055
    21  O   -0.113510
 Electronic spatial extent (au):  <R**2>=           2908.7953
 Charge=             -0.0000 electrons
 Dipole moment (field-independent basis, Debye):
    X=              6.0790    Y=              1.5910    Z=              1.3646  Tot=              6.4302
 Quadrupole moment (field-independent basis, Debye-Ang):
   XX=            -78.5918   YY=            -64.1967   ZZ=            -76.2314
   XY=             -0.4854   XZ=             -6.9713   YZ=             -2.0291
 Traceless Quadrupole moment (field-independent basis, Debye-Ang):
   XX=             -5.5852   YY=              8.8100   ZZ=             -3.2248
   XY=             -0.4854   XZ=             -6.9713   YZ=             -2.0291
 Octapole moment (field-independent basis, Debye-Ang**2):
  XXX=             58.6216  YYY=              5.2426  ZZZ=              4.1841  XYY=              1.4633
  XXY=            -12.1231  XXZ=             40.3904  XZZ=            -26.8334  YZZ=             -5.9661
  YYZ=              1.0253  XYZ=              8.5091
 Hexadecapole moment (field-independent basis, Debye-Ang**3):
 XXXX=          -2718.6634 YYYY=           -725.0404 ZZZZ=            -99.9989 XXXY=             48.4290
 XXXZ=           -188.5354 YYYX=              0.3367 YYYZ=             -1.6890 ZZZX=            -24.1765
 ZZZY=              0.8945 XXYY=           -543.4430 XXZZ=           -465.9887 YYZZ=           -164.4833
 XXYZ=            -42.4747 YYXZ=             -4.5754 ZZXY=             17.9350
 N-N= 7.265002983979D+02 E-N=-2.879895363918D+03  KE= 6.066998862675D+02
  Exact polarizability:   0.000   0.000   0.000   0.000   0.000   0.000
 Approx polarizability: 205.163  -1.982 184.461   4.528   1.736  63.438
                          Isotropic Fermi Contact Couplings
        Atom                 a.u.       MegaHertz       Gauss      10(-4) cm-1
     1  C(13)              0.01656      18.61412       6.64198       6.20900
     2  C(13)             -0.01126     -12.66159      -4.51797      -4.22345
     3  C(13)              0.01774      19.94537       7.11700       6.65306
     4  C(13)             -0.02745     -30.85770     -11.01080     -10.29302
     5  C(13)             -0.00908     -10.20477      -3.64132      -3.40395
     6  C(13)              0.01302      14.64099       5.22427       4.88371
     7  H(1)               0.00026       1.14757       0.40948       0.38279
     8  H(1)              -0.00155      -6.90993      -2.46564      -2.30491
     9  H(1)               0.00049       2.19845       0.78446       0.73332
    10  H(1)              -0.00152      -6.79945      -2.42621      -2.26805
    11  C(13)             -0.01991     -22.38718      -7.98830      -7.46756
    12  C(13)              0.08395      94.38137      33.67762      31.48224
    13  C(13)             -0.04219     -47.43064     -16.92443     -15.82116
    14  H(1)              -0.00711     -31.77596     -11.33845     -10.59932
    15  C(13)              0.06530      73.40783      26.19374      24.48622
    16  H(1)               0.00156       6.97950       2.49046       2.32811
    17  H(1)              -0.00649     -29.01537     -10.35341      -9.67849
    18  O(17)              0.06650     -40.30918     -14.38332     -13.44569
    19  H(1)              -0.00003      -0.14176      -0.05058      -0.04729
    20  O(17)             -0.00146       0.88688       0.31646       0.29583
    21  O(17)             -0.00050       0.30058       0.10725       0.10026
    22  H(1)              -0.00003      -0.14310      -0.05106      -0.04773
 --------------------------------------------------------
       Center         ----  Spin Dipole Couplings  ----
                      3XX-RR        3YY-RR        3ZZ-RR
 --------------------------------------------------------
     1   Atom       -0.044993     -0.045354      0.090347
     2   Atom        0.016221      0.018761     -0.034982
     3   Atom       -0.044490     -0.045416      0.089906
     4   Atom        0.033120      0.033496     -0.066616
     5   Atom        0.014498      0.006670     -0.021169
     6   Atom       -0.036484     -0.039892      0.076377
     7   Atom        0.004194     -0.000173     -0.004021
     8   Atom       -0.002378      0.003915     -0.001538
     9   Atom       -0.000206      0.002113     -0.001907
    10   Atom        0.001716      0.001631     -0.003346
    11   Atom       -0.005614      0.012272     -0.006657
    12   Atom       -0.221025     -0.218794      0.439819
    13   Atom        0.064445      0.054155     -0.118600
    14   Atom       -0.010012      0.014257     -0.004244
    15   Atom       -0.174892     -0.182757      0.357650
    16   Atom        0.007842     -0.001789     -0.006053
    17   Atom        0.028528     -0.023258     -0.005270
    18   Atom       -0.492958     -0.515338      1.008296
    19   Atom        0.014983     -0.006992     -0.007991
    20   Atom       -0.004031      0.002758      0.001273
    21   Atom        0.003193     -0.001285     -0.001907
    22   Atom        0.002403     -0.001191     -0.001212
 --------------------------------------------------------
                        XY            XZ            YZ
 --------------------------------------------------------
     1   Atom       -0.003016     -0.005803      0.000984
     2   Atom       -0.001473      0.002066     -0.000586
     3   Atom       -0.001959     -0.005082      0.001349
     4   Atom       -0.003807      0.004544     -0.001070
     5   Atom       -0.003013      0.001586     -0.000735
     6   Atom       -0.002491     -0.002333      0.001102
     7   Atom       -0.003709      0.000437     -0.000215
     8   Atom       -0.007477      0.000026     -0.000364
     9   Atom       -0.001258      0.000097     -0.000091
    10   Atom        0.005166      0.000177      0.000155
    11   Atom        0.012534     -0.002515      0.000675
    12   Atom        0.006747     -0.029746      0.007440
    13   Atom        0.006367      0.007503     -0.001187
    14   Atom        0.031655     -0.000574      0.001232
    15   Atom       -0.003727     -0.017763      0.000805
    16   Atom        0.002011      0.000538      0.000059
    17   Atom       -0.008681      0.001363     -0.000240
    18   Atom       -0.012731     -0.116613      0.019843
    19   Atom        0.000769      0.003235      0.000146
    20   Atom        0.003001     -0.001684      0.000504
    21   Atom        0.000028     -0.000732      0.000601
    22   Atom        0.000450     -0.001307     -0.000112
 --------------------------------------------------------


 ---------------------------------------------------------------------------------
              Anisotropic Spin Dipole Couplings in Principal Axis System
 ---------------------------------------------------------------------------------

       Atom             a.u.   MegaHertz   Gauss  10(-4) cm-1        Axes

              Baa    -0.0483    -6.478    -2.311    -2.161  0.6994  0.7143  0.0242
     1 C(13)  Bbb    -0.0423    -5.680    -2.027    -1.895  0.7134 -0.6998  0.0364
              Bcc     0.0906    12.158     4.338     4.056 -0.0429  0.0082  0.9990
 
              Baa    -0.0351    -4.706    -1.679    -1.570 -0.0400  0.0098  0.9992
     2 C(13)  Bbb     0.0156     2.093     0.747     0.698  0.9038  0.4268  0.0320
              Bcc     0.0195     2.613     0.932     0.872 -0.4261  0.9043 -0.0259
 
              Baa    -0.0470    -6.307    -2.250    -2.104  0.6351  0.7723  0.0160
     3 C(13)  Bbb    -0.0431    -5.785    -2.064    -1.930  0.7715 -0.6352  0.0359
              Bcc     0.0901    12.092     4.315     4.034 -0.0379  0.0105  0.9992
 
              Baa    -0.0668    -8.968    -3.200    -2.991 -0.0451  0.0089  0.9989
     4 C(13)  Bbb     0.0296     3.967     1.416     1.323  0.7148  0.6989  0.0260
              Bcc     0.0373     5.001     1.784     1.668 -0.6979  0.7152 -0.0379
 
              Baa    -0.0213    -2.852    -1.018    -0.951 -0.0425  0.0217  0.9989
     5 C(13)  Bbb     0.0056     0.758     0.270     0.253  0.3233  0.9463 -0.0068
              Bcc     0.0156     2.094     0.747     0.699  0.9454 -0.3226  0.0472
 
              Baa    -0.0412    -5.530    -1.973    -1.844  0.4669  0.8843  0.0010
     6 C(13)  Bbb    -0.0352    -4.728    -1.687    -1.577  0.8841 -0.4668  0.0231
              Bcc     0.0764    10.257     3.660     3.421 -0.0209  0.0099  0.9997
 
              Baa    -0.0040    -2.158    -0.770    -0.720 -0.0493  0.0082  0.9987
     7 H(1)   Bbb    -0.0023    -1.223    -0.437    -0.408  0.4954  0.8685  0.0173
              Bcc     0.0063     3.381     1.206     1.128  0.8673 -0.4956  0.0469
 
              Baa    -0.0073    -3.921    -1.399    -1.308  0.8323  0.5535  0.0310
     8 H(1)   Bbb    -0.0015    -0.823    -0.294    -0.274 -0.0426  0.0082  0.9991
              Bcc     0.0089     4.744     1.693     1.582 -0.5527  0.8328 -0.0304
 
              Baa    -0.0019    -1.020    -0.364    -0.340 -0.0519  0.0064  0.9986
     9 H(1)   Bbb    -0.0008    -0.403    -0.144    -0.134  0.9143  0.4025  0.0449
              Bcc     0.0027     1.423     0.508     0.475 -0.4016  0.9154 -0.0267
 
              Baa    -0.0035    -1.864    -0.665    -0.622 -0.7022  0.7047  0.1017
    10 H(1)   Bbb    -0.0034    -1.788    -0.638    -0.596  0.0553 -0.0883  0.9946
              Bcc     0.0068     3.652     1.303     1.218  0.7098  0.7040  0.0230
 
              Baa    -0.0131    -1.755    -0.626    -0.585  0.8293 -0.4198  0.3689
    11 C(13)  Bbb    -0.0057    -0.759    -0.271    -0.253 -0.3184  0.1876  0.9292
              Bcc     0.0187     2.515     0.897     0.839  0.4593  0.8880 -0.0219
 
              Baa    -0.2279   -30.582   -10.913   -10.201  0.7861 -0.6166  0.0419
    12 C(13)  Bbb    -0.2133   -28.627   -10.215    -9.549  0.6164  0.7872  0.0191
              Bcc     0.4412    59.209    21.127    19.750 -0.0448  0.0108  0.9989
 
              Baa    -0.1189   -15.958    -5.694    -5.323 -0.0412  0.0084  0.9991
    13 C(13)  Bbb     0.0512     6.873     2.453     2.293 -0.4222  0.9062 -0.0250
              Bcc     0.0677     9.084     3.242     3.030  0.9056  0.4228  0.0338
 
              Baa    -0.0318   -16.982    -6.060    -5.665  0.8230 -0.5664  0.0424
    14 H(1)   Bbb    -0.0042    -2.244    -0.801    -0.749 -0.0447  0.0099  0.9990
              Bcc     0.0360    19.227     6.861     6.413  0.5663  0.8240  0.0171
 
              Baa    -0.1843   -24.732    -8.825    -8.250  0.3863  0.9223  0.0113
    15 C(13)  Bbb    -0.1739   -23.340    -8.328    -7.786  0.9218 -0.3865  0.0314
              Bcc     0.3582    48.073    17.154    16.035 -0.0333  0.0017  0.9994
 
              Baa    -0.0061    -3.241    -1.156    -1.081 -0.0393  0.0047  0.9992
    16 H(1)   Bbb    -0.0022    -1.169    -0.417    -0.390 -0.1958  0.9806 -0.0123
              Bcc     0.0083     4.410     1.574     1.471  0.9798  0.1962  0.0376
 
              Baa    -0.0247   -13.165    -4.698    -4.391  0.1610  0.9870  0.0009
    17 H(1)   Bbb    -0.0053    -2.841    -1.014    -0.948 -0.0388  0.0054  0.9992
              Bcc     0.0300    16.006     5.711     5.339  0.9862 -0.1609  0.0392
 
              Baa    -0.5219    37.763    13.475    12.596  0.4885  0.8722  0.0259
    18 O(17)  Bbb    -0.4957    35.869    12.799    11.965  0.8692 -0.4890  0.0738
              Bcc     1.0176   -73.631   -26.274   -24.561 -0.0771  0.0135  0.9969
 
              Baa    -0.0084    -4.503    -1.607    -1.502 -0.1359 -0.0279  0.9903
    19 H(1)   Bbb    -0.0070    -3.745    -1.336    -1.249 -0.0383  0.9990  0.0229
              Bcc     0.0155     8.247     2.943     2.751  0.9900  0.0348  0.1368
 
              Baa    -0.0056     0.406     0.145     0.135  0.9074 -0.3401  0.2468
    20 O(17)  Bbb     0.0017    -0.124    -0.044    -0.041 -0.2109  0.1392  0.9675
              Bcc     0.0039    -0.282    -0.101    -0.094  0.3634  0.9300 -0.0546
 
              Baa    -0.0023     0.170     0.061     0.057  0.1165 -0.4912  0.8632
    21 O(17)  Bbb    -0.0009     0.069     0.024     0.023  0.0798  0.8710  0.4848
              Bcc     0.0033    -0.239    -0.085    -0.080  0.9900 -0.0124 -0.1407
 
              Baa    -0.0016    -0.874    -0.312    -0.291  0.3148 -0.0795  0.9458
    22 H(1)   Bbb    -0.0012    -0.662    -0.236    -0.221 -0.0826  0.9904  0.1108
              Bcc     0.0029     1.536     0.548     0.512  0.9455  0.1130 -0.3052
 

 ---------------------------------------------------------------------------------

 Calling FoFJK, ICntrl=    100147 FMM=F ISym2X=0 I1Cent= 0 IOpClX= 1 NMat=1 NMatS=1 NMatT=0.
 ***** Axes restored to original set *****
 -------------------------------------------------------------------
 Center     Atomic                   Forces (Hartrees/Bohr)
 Number     Number              X              Y              Z
 -------------------------------------------------------------------
      1        6           0.001796993   -0.001314640    0.000041495
      2        6           0.001814590   -0.001299839    0.000073786
      3        6          -0.000066553    0.002005849   -0.000066612
      4        6          -0.000004443    0.001565906    0.000078932
      5        6          -0.001774332   -0.001787555   -0.000018075
      6        6          -0.003646705   -0.001620391    0.000246268
      7        1          -0.001571944   -0.002055180   -0.000018376
      8        1           0.001131085   -0.002245921    0.000099841
      9        1           0.002550117   -0.000096380    0.000138634
     10        1           0.001297442    0.002249419    0.000031470
     11        6           0.007123620    0.014845118   -0.000180956
     12        6           0.001242305    0.000758283   -0.000076252
     13        6           0.000147290    0.001824858    0.000118844
     14        1           0.001415192    0.002074766    0.000030196
     15        6           0.000314704   -0.001914643   -0.000311036
     16        1          -0.001256424    0.001986999   -0.000044970
     17        1          -0.006971077   -0.001087625   -0.000246715
     18        8          -0.013319350   -0.015901853   -0.002035817
     19        1          -0.075419859    0.027738123   -0.006478578
     20        8           0.084976131   -0.030843116    0.001396606
     21        8           0.005053086    0.010943442    0.002016341
     22        1          -0.004831868   -0.005825620    0.005204975
 -------------------------------------------------------------------
 Cartesian Forces:  Max     0.084976131 RMS     0.015447433
 FormGI is forming the generalized inverse of G from B-inverse, IUseBI=4.

 GradGradGradGradGradGradGradGradGradGradGradGradGradGradGradGradGradGrad
 Berny optimization.
 Internal  Forces:  Max     0.089335397 RMS     0.009194669
 Search for a saddle point.
 Step number   1 out of a maximum of  132
 All quantities printed in internal units (Hartrees-Bohrs-Radians)
 Swapping is turned off.
 Second derivative matrix not updated -- analytic derivatives used.
 ITU=  0
     Eigenvalues ---   -0.00971   0.00737   0.00837   0.01025   0.01434
     Eigenvalues ---    0.01535   0.01734   0.01848   0.01897   0.02007
     Eigenvalues ---    0.02143   0.02238   0.02343   0.02496   0.02590
     Eigenvalues ---    0.02645   0.02694   0.02798   0.02953   0.03300
     Eigenvalues ---    0.03992   0.07348   0.11049   0.11196   0.11226
     Eigenvalues ---    0.11475   0.12352   0.12585   0.12649   0.12872
     Eigenvalues ---    0.17575   0.17982   0.18305   0.18854   0.19390
     Eigenvalues ---    0.20004   0.20498   0.20996   0.25156   0.28442
     Eigenvalues ---    0.29614   0.32055   0.36880   0.36975   0.37274
     Eigenvalues ---    0.37369   0.37551   0.37843   0.38290   0.38599
     Eigenvalues ---    0.40050   0.40574   0.43586   0.44025   0.46200
     Eigenvalues ---    0.49835   0.51103   0.53677   0.56673   0.80161
 Eigenvectors required to have negative eigenvalues:
                          R20       R21       A31       A35       D37
   1                   -0.86183   0.43804  -0.14361  -0.11388  -0.10397
                          D38       D47       D48       R14       D35
   1                   -0.09644  -0.06523  -0.04017   0.02462  -0.02456
 RFO step:  Lambda0=2.349498626D-02 Lambda=-5.12656273D-02.
 Linear search not attempted -- option 19 set.
 Maximum step size (   0.300) exceeded in Quadratic search.
    -- Step size scaled by   0.302
 Iteration  1 RMS(Cart)=  0.05440565 RMS(Int)=  0.00879800
 Iteration  2 RMS(Cart)=  0.01521321 RMS(Int)=  0.00001591
 Iteration  3 RMS(Cart)=  0.00003235 RMS(Int)=  0.00000578
 Iteration  4 RMS(Cart)=  0.00000000 RMS(Int)=  0.00000578
 Variable       Old X    -DE/DX   Delta X   Delta X   Delta X     New X
                                 (Linear)    (Quad)   (Total)
    R1        2.64506   0.00402   0.00000   0.00180   0.00180   2.64686
    R2        2.61024   0.00488   0.00000   0.00270   0.00270   2.61294
    R3        2.04223   0.00254   0.00000   0.00163   0.00163   2.04387
    R4        2.60109   0.00552   0.00000   0.00295   0.00295   2.60404
    R5        2.04329   0.00255   0.00000   0.00179   0.00179   2.04508
    R6        2.65865   0.00366   0.00000   0.00131   0.00131   2.65996
    R7        2.04360   0.00257   0.00000   0.00177   0.00177   2.04537
    R8        2.66513   0.00437   0.00000   0.00264   0.00263   2.66776
    R9        2.69268   0.00395   0.00000   0.00163   0.00163   2.69431
   R10        2.63408   0.00424   0.00000   0.00250   0.00250   2.63658
   R11        2.04124   0.00261   0.00000   0.00162   0.00162   2.04286
   R12        2.78466  -0.00044   0.00000  -0.00553  -0.00553   2.77913
   R13        2.73388   0.00146   0.00000  -0.00184  -0.00184   2.73204
   R14        2.33873   0.01329   0.00000   0.01253   0.01253   2.35126
   R15        2.62615   0.00473   0.00000   0.00157   0.00157   2.62772
   R16        2.04356   0.00252   0.00000   0.00182   0.00182   2.04538
   R17        2.60271   0.00474   0.00000   0.00320   0.00320   2.60592
   R18        2.04258   0.00233   0.00000   0.00140   0.00140   2.04398
   R19        2.03571   0.00689   0.00000   0.00344   0.00344   2.03915
   R20        2.97464  -0.00969   0.00000  -0.28473  -0.28473   2.68991
   R21        2.30071  -0.08934   0.00000  -0.04771  -0.04771   2.25299
   R22        2.68026   0.00882   0.00000   0.01397   0.01397   2.69423
   R23        1.80903   0.00915   0.00000   0.00410   0.00410   1.81313
    A1        2.09952  -0.00027   0.00000   0.00031   0.00031   2.09982
    A2        2.09090   0.00017   0.00000   0.00030   0.00030   2.09120
    A3        2.09276   0.00009   0.00000  -0.00060  -0.00060   2.09216
    A4        2.09748   0.00019   0.00000   0.00021   0.00021   2.09769
    A5        2.09240  -0.00008   0.00000  -0.00008  -0.00008   2.09232
    A6        2.09329  -0.00011   0.00000  -0.00013  -0.00013   2.09316
    A7        2.10144   0.00011   0.00000  -0.00020  -0.00020   2.10124
    A8        2.10510   0.00005   0.00000   0.00015   0.00015   2.10526
    A9        2.07664  -0.00016   0.00000   0.00005   0.00005   2.07669
   A10        2.07726  -0.00056   0.00000  -0.00003  -0.00003   2.07723
   A11        2.12046   0.00064   0.00000   0.00071   0.00071   2.12118
   A12        2.08547  -0.00008   0.00000  -0.00068  -0.00069   2.08478
   A13        2.09749  -0.00040   0.00000  -0.00088  -0.00088   2.09660
   A14        2.11662   0.00035   0.00000  -0.00041  -0.00041   2.11621
   A15        2.06908   0.00005   0.00000   0.00129   0.00129   2.07037
   A16        2.09318   0.00093   0.00000   0.00060   0.00060   2.09378
   A17        2.08849  -0.00102   0.00000  -0.00270  -0.00271   2.08579
   A18        2.10151   0.00009   0.00000   0.00211   0.00211   2.10362
   A19        2.04967   0.00320   0.00000   0.00781   0.00780   2.05747
   A20        2.11143   0.00011   0.00000  -0.00826  -0.00826   2.10318
   A21        2.12208  -0.00331   0.00000   0.00046   0.00046   2.12254
   A22        2.11685  -0.00016   0.00000   0.00012   0.00011   2.11696
   A23        2.07104   0.00003   0.00000  -0.00020  -0.00020   2.07084
   A24        2.09529   0.00013   0.00000   0.00008   0.00009   2.09538
   A25        2.11139  -0.00054   0.00000   0.00129   0.00128   2.11267
   A26        2.08386   0.00051   0.00000   0.00042   0.00042   2.08428
   A27        2.08793   0.00003   0.00000  -0.00171  -0.00171   2.08622
   A28        2.11449  -0.00140   0.00000  -0.00579  -0.00579   2.10870
   A29        2.04375  -0.00077   0.00000   0.00072   0.00072   2.04447
   A30        2.12482   0.00217   0.00000   0.00504   0.00504   2.12986
   A31        2.06714  -0.01452   0.00000  -0.05632  -0.05632   2.01082
   A32        1.75562  -0.00274   0.00000  -0.00641  -0.00641   1.74921
   A33        1.78038  -0.00039   0.00000  -0.00351  -0.00351   1.77687
   A34        2.93652  -0.00501   0.00000   0.00654   0.00654   2.94306
   A35        3.21645  -0.00056   0.00000  -0.05120  -0.05120   3.16525
    D1        0.00058  -0.00001   0.00000  -0.00058  -0.00058  -0.00000
    D2       -3.13757  -0.00002   0.00000  -0.00050  -0.00050  -3.13807
    D3        3.13795   0.00001   0.00000  -0.00006  -0.00006   3.13789
    D4       -0.00020  -0.00001   0.00000   0.00002   0.00002  -0.00018
    D5       -0.00062   0.00002   0.00000   0.00113   0.00113   0.00051
    D6        3.14064   0.00000   0.00000   0.00102   0.00102  -3.14153
    D7       -3.13798   0.00000   0.00000   0.00060   0.00060  -3.13738
    D8        0.00327  -0.00002   0.00000   0.00050   0.00050   0.00377
    D9       -0.00060  -0.00000   0.00000  -0.00050  -0.00050  -0.00110
   D10       -3.13987  -0.00001   0.00000  -0.00004  -0.00004  -3.13990
   D11        3.13755   0.00001   0.00000  -0.00058  -0.00058   3.13697
   D12       -0.00172   0.00001   0.00000  -0.00012  -0.00012  -0.00184
   D13        0.00066  -0.00000   0.00000   0.00101   0.00101   0.00167
   D14       -3.14009   0.00001   0.00000   0.00045   0.00045  -3.13964
   D15        3.13996   0.00001   0.00000   0.00056   0.00056   3.14052
   D16       -0.00078   0.00002   0.00000  -0.00000  -0.00001  -0.00079
   D17       -0.00070   0.00001   0.00000  -0.00047  -0.00046  -0.00116
   D18       -3.13866   0.00003   0.00000  -0.00246  -0.00245  -3.14111
   D19        3.14007   0.00000   0.00000   0.00008   0.00009   3.14016
   D20        0.00210   0.00002   0.00000  -0.00191  -0.00190   0.00020
   D21       -3.14092  -0.00000   0.00000  -0.00199  -0.00198   3.14029
   D22       -0.00145  -0.00002   0.00000  -0.00102  -0.00102  -0.00247
   D23        0.00152   0.00001   0.00000  -0.00256  -0.00255  -0.00102
   D24        3.14099  -0.00001   0.00000  -0.00158  -0.00158   3.13940
   D25        0.00068  -0.00002   0.00000  -0.00059  -0.00060   0.00009
   D26        3.13862  -0.00004   0.00000   0.00141   0.00140   3.14002
   D27       -3.14058  -0.00000   0.00000  -0.00049  -0.00049  -3.14107
   D28       -0.00264  -0.00003   0.00000   0.00151   0.00151  -0.00114
   D29       -0.00513  -0.00003   0.00000   0.00703   0.00704   0.00191
   D30        3.13460   0.00007   0.00000   0.00995   0.00994  -3.13864
   D31        3.14011  -0.00001   0.00000   0.00502   0.00504  -3.13803
   D32       -0.00334   0.00010   0.00000   0.00794   0.00795   0.00460
   D33        0.00478   0.00000   0.00000  -0.00814  -0.00814  -0.00336
   D34       -3.12056   0.00000   0.00000  -0.00568  -0.00570  -3.12626
   D35       -3.13493  -0.00011   0.00000  -0.01107  -0.01107   3.13718
   D36        0.02290  -0.00011   0.00000  -0.00861  -0.00863   0.01428
   D37       -2.98300  -0.00064   0.00000  -0.04915  -0.04914  -3.03214
   D38        0.15666  -0.00052   0.00000  -0.04610  -0.04612   0.11054
   D39       -0.00198  -0.00004   0.00000   0.00158   0.00157  -0.00041
   D40        3.13437  -0.00001   0.00000   0.00121   0.00119   3.13556
   D41       -3.14141  -0.00002   0.00000   0.00059   0.00059  -3.14082
   D42       -0.00506   0.00001   0.00000   0.00022   0.00021  -0.00485
   D43       -0.00132   0.00004   0.00000   0.00399   0.00397   0.00265
   D44        3.12327   0.00001   0.00000   0.00137   0.00135   3.12463
   D45       -3.13765   0.00001   0.00000   0.00436   0.00434  -3.13331
   D46       -0.01307  -0.00002   0.00000   0.00174   0.00173  -0.01134
   D47       -1.06764   0.00151   0.00000  -0.03713  -0.03713  -1.10477
   D48       -1.76669  -0.00048   0.00000  -0.02396  -0.02396  -1.79065
         Item               Value     Threshold  Converged?
 Maximum Force            0.089335     0.002500     NO 
 RMS     Force            0.009195     0.001667     NO 
 Maximum Displacement     0.324178     0.010000     NO 
 RMS     Displacement     0.066136     0.006667     NO 
 Predicted change in Energy=-7.195082D-03
 GradGradGradGradGradGradGradGradGradGradGradGradGradGradGradGradGradGrad

                          Input orientation:                          
 ---------------------------------------------------------------------
 Center     Atomic      Atomic             Coordinates (Angstroms)
 Number     Number       Type             X           Y           Z
 ---------------------------------------------------------------------
      1          6           0        2.825168   -1.687473    0.075674
      2          6           0        3.597038   -0.519315    0.113984
      3          6           0        2.987016    0.715786    0.078154
      4          6           0        1.585068    0.815649    0.001520
      5          6           0        1.446567   -1.610863    0.001688
      6          6           0        0.815334   -0.367171   -0.035911
      7          1           0        0.836160   -2.502558   -0.028634
      8          1           0        3.310422   -2.653751    0.100652
      9          1           0        4.675726   -0.587386    0.168585
     10          1           0        3.576733    1.622969    0.105811
     11          6           0       -0.650231   -0.275390   -0.116589
     12          6           0        0.928719    2.080700   -0.039271
     13          6           0       -0.456557    2.173504   -0.116523
[...]
 205,0.01059551,0.00597502,0.00478713,0.02722581,0.64039243,-0.00007057
 ,0.00136418,-0.00041110,-0.00516913,-0.00429630,0.00295775,-0.01227656
 ,0.01784141,-0.00051681,-0.01795572,-0.00926562,-0.06689841,-0.0025819
 4,-0.00394370,0.00456858,0.01021444,-0.00480010,0.00627567,0.00040272,
 -0.00077503,0.00025143,0.00047719,0.00013048,-0.00089259,-0.00032027,0
 .00055715,0.00031576,0.00151781,0.00101534,-0.00258299,0.00229717,0.00
 866918,-0.00376096,0.20865967,0.07658323,0.23211469,-0.00448125,-0.004
 88731,-0.00261095,0.00107482,0.01276007,0.00198483,0.01858136,-0.00791
 006,0.00584885,-0.03236028,0.05781166,-0.01086017,-0.00013722,-0.00034
 297,0.00010757,-0.01371657,-0.00958602,-0.00740837,-0.00026530,0.00026
 464,-0.00008597,0.00001195,0.00001004,-0.00006958,-0.00018813,0.000294
 20,0.00017091,0.00019203,-0.00029017,0.00004467,0.01324482,-0.03192917
 ,0.00439606,-0.24764319,-0.00144916,-0.08952294,0.53080815,0.00007215,
 -0.00149855,-0.00012312,0.00178815,0.00368686,0.00125251,0.00598132,-0
 .00858044,0.00130914,0.02504283,0.01660605,0.01286006,-0.00141892,0.00
 158129,-0.00046012,-0.00227931,-0.00446858,-0.00152806,-0.00032927,0.0
 0020344,-0.00011907,-0.00005927,0.00002534,-0.00004987,0.00013909,-0.0
 0045401,0.00007155,0.00037273,0.00001665,0.00016974,-0.02191537,-0.040
 65445,-0.01270909,0.09350202,-0.13788516,0.03286769,-0.07334878,0.7278
 0466,-0.00205626,-0.00239171,-0.00140223,0.00072896,0.00635894,0.00108
 787,0.00739487,-0.00511167,0.00687572,-0.01441069,0.02801747,0.0018981
 9,0.00007965,0.00000980,-0.00058924,-0.00625596,-0.00471872,-0.0048133
 5,-0.00015900,0.00015337,-0.00005587,-0.00009897,-0.00001567,0.0001679
 6,0.00014736,0.00014319,-0.00038916,0.00011765,-0.00014430,0.00011363,
 0.00326421,-0.01925453,0.00235177,-0.07757163,-0.01036764,-0.09290291,
 0.17726007,0.03493252,0.20861203,0.00022380,0.00007874,0.00007784,-0.0
 0005475,-0.00048867,-0.00006936,0.00055825,0.00105477,0.00159937,0.010
 04146,0.00948887,0.00342404,0.00044947,0.00051116,0.00035995,-0.000283
 62,0.00265539,-0.00183261,-0.00012047,0.00017899,0.00006000,-0.0000052
 1,-0.00001973,-0.00003035,0.00001978,-0.00001287,-0.00002280,-0.000222
 17,-0.00051354,-0.00027883,-0.00056616,0.00053888,0.00018722,-0.136964
 29,-0.11480141,-0.06065404,-0.00828171,-0.02339529,-0.00969141,0.13894
 643,0.00019319,0.00022265,0.00010895,0.00027160,-0.00005694,0.00011844
 ,-0.00198763,0.00116518,-0.00049886,-0.01689501,-0.01739245,-0.0104085
 8,-0.00153602,-0.00053432,-0.00076068,0.00404163,-0.00324567,0.0009744
 1,0.00023242,-0.00041638,0.00008170,0.00007230,0.00003226,0.00003004,0
 .00003057,-0.00002746,0.00000321,0.00129210,0.00005154,0.00055407,0.00
 072903,-0.00081427,0.00040084,-0.11520800,-0.22980715,-0.07872031,0.00
 359091,0.00753159,0.00188534,0.12355005,0.24026233,0.00011000,0.000051
 37,0.00014129,0.00000513,-0.00023130,-0.00004366,0.00121329,0.00096121
 ,-0.00186223,0.00043917,0.00182209,0.00531137,0.00008065,0.00022105,-0
 .00013880,-0.00158286,0.00032840,0.00361614,0.00006551,0.00005512,-0.0
 0015898,-0.00001875,-0.00001171,0.00004108,-0.00001874,-0.00001392,0.0
 0005170,-0.00016437,-0.00029419,0.00021949,0.00018975,0.00021721,-0.00
 074729,-0.06125056,-0.07884017,-0.07381342,-0.00588917,-0.01027775,0.0
 0223940,0.06917036,0.08537645,0.06448114,0.00206668,0.00201067,0.00135
 411,-0.00113916,-0.00409843,-0.00099103,-0.00519806,0.00229071,-0.0017
 2130,0.00553946,-0.01243340,0.00199756,-0.00569204,-0.00045670,-0.0037
 3717,-0.00305427,0.03080270,-0.00256926,0.00013553,-0.00007203,-0.0000
 1131,-0.00062841,0.00014990,-0.00012547,0.00012048,-0.00020358,-0.0000
 6149,-0.00010659,0.00001284,-0.00005198,-0.14421062,0.07431966,-0.0262
 0656,-0.05265357,-0.01266802,-0.02793178,-0.16436646,-0.11744245,-0.06
 439086,-0.00353069,0.00199188,-0.00418332,0.63557081,0.00156839,0.0041
 2005,0.00126337,0.00039998,-0.00554573,-0.00045859,-0.00748631,0.00348
 760,-0.00301196,0.01122888,-0.02695415,0.00233571,-0.00096363,0.001038
 47,-0.00047102,0.01345522,0.00044416,0.00598948,-0.00007842,0.00013881
 ,0.00001440,0.00003014,-0.00005560,0.00002776,-0.00001419,-0.00005751,
 -0.00003741,0.00009029,0.00014641,0.00006695,0.08709993,-0.17932110,0.
 02333133,-0.07487400,0.03204917,-0.03121982,-0.03967899,-0.26783257,-0
 .04274014,0.00257979,0.00174888,0.00063802,0.02113083,0.60810363,0.001
 77191,0.00167184,0.00075637,-0.00041695,-0.00291696,-0.00059617,-0.003
 00777,0.00183718,-0.00200667,0.00462984,-0.00905779,-0.00047725,-0.004
 23214,0.00026252,0.00030065,-0.00413749,0.01245053,0.01078186,-0.00003
 862,-0.00003908,0.00014398,-0.00009852,0.00010212,-0.00038643,-0.00005
 783,-0.00012770,0.00017104,-0.00000338,0.00001594,-0.00003127,-0.02478
 183,0.02029859,-0.07874159,-0.03405544,-0.00270825,-0.01161726,-0.0558
 2683,-0.07818024,-0.08551100,-0.00407220,0.00042627,0.00404787,0.23807
 752,0.06395815,0.22849380,0.00004165,-0.00015389,-0.00009524,-0.000554
 22,0.00007627,0.00004523,0.00037728,0.00134779,0.00010510,-0.00346436,
 -0.00076483,-0.00483301,-0.00002336,0.00012502,0.00030716,-0.00015394,
 -0.00070807,0.00028078,-0.00003813,0.00005172,-0.00002091,0.00002993,0
 .00001898,-0.00002903,-0.00006182,0.00013665,0.00001818,-0.00000891,-0
 .00003732,-0.00005373,-0.00128324,-0.00132427,-0.00493135,-0.00539358,
 0.02791216,-0.00066768,-0.09726294,0.09781112,-0.01403829,0.00012405,-
 0.00053405,0.00174170,0.01182234,-0.01750102,0.00085190,0.09590297,-0.
 00009080,-0.00003239,-0.00006944,0.00004720,0.00012061,0.00011147,0.00
 004622,-0.00021968,-0.00005508,0.00045376,0.00154378,-0.00040522,0.000
 11326,-0.00006745,0.00012669,-0.00034336,0.00035635,-0.00002782,-0.000
 03916,0.00002337,-0.00001519,0.00001755,-0.00001384,-0.00000623,0.0000
 0516,-0.00001767,0.00000765,0.00002564,0.00000478,-0.00000070,-0.00331
 808,0.00090183,-0.00256603,-0.00074017,0.00031823,-0.00074116,0.098701
 93,-0.30732538,0.01433064,-0.00005544,0.00052552,0.00046400,0.01077816
 ,-0.01835812,0.00211597,-0.10534695,0.32348978,-0.00008167,-0.00010587
 ,0.00014804,0.00003441,0.00012556,-0.00059102,-0.00003297,0.00053663,0
 .00050690,-0.00468846,-0.00095478,0.00442252,0.00030589,0.00013256,-0.
 00048708,0.00036137,-0.00023466,-0.00080151,-0.00003164,0.00002549,0.0
 0001029,-0.00002946,-0.00000471,0.00008313,0.00000238,0.00006840,-0.00
 005436,-0.00004927,-0.00002697,0.00007325,-0.00531321,-0.00121117,0.00
 668174,-0.00407575,0.01228112,0.00282600,-0.01398203,0.01394747,-0.045
 70858,0.00179543,0.00027103,-0.00287053,0.00440136,-0.01087151,0.00610
 971,0.01865494,-0.01379267,0.03461182,-0.00022458,0.00013610,0.0000372
 3,0.00005759,0.00017697,-0.00004964,0.00000808,-0.00011017,0.00021917,
 0.00016650,0.00021794,0.00047047,-0.00010635,-0.00044204,-0.00034432,0
 .00065963,0.00203050,-0.00086762,0.00004839,0.00003788,-0.00000746,-0.
 00008415,0.00000299,0.00002452,-0.00000335,0.00000836,-0.00001636,0.00
 001097,-0.00002176,-0.00001193,-0.00706388,-0.00210757,-0.00553751,0.0
 0140353,-0.00235396,-0.00288864,-0.00702188,0.00505359,-0.00516612,-0.
 00057918,0.00024383,-0.00003287,-0.29514099,0.03271936,-0.11378159,-0.
 00030440,-0.00038615,0.00185749,0.30683440,0.00024391,-0.00037155,0.00
 008411,-0.00003229,-0.00022076,-0.00005837,-0.00017499,0.00029927,0.00
 000013,0.00004751,-0.00089290,0.00001322,0.00122836,0.00065887,0.00060
 509,0.00059287,-0.00568032,-0.00066057,-0.00001371,-0.00000454,-0.0000
 1837,0.00015398,-0.00002684,0.00008435,0.00000540,0.00001809,0.0000001
 4,0.00007663,0.00001177,0.00003251,0.02848394,0.00090322,0.01229140,-0
 .00241695,-0.00401546,-0.00245043,-0.02218092,0.00923757,-0.00947835,-
 0.00117793,0.00027682,-0.00047563,0.03247614,-0.06080765,0.01227327,0.
 00022627,0.00081100,0.00068795,-0.03473053,0.05677066,0.00001394,0.000
 03866,-0.00026909,-0.00007600,0.00005913,0.00018685,0.00023360,0.00001
 390,-0.00040774,0.00042298,0.00014561,-0.00057576,-0.00013838,-0.00023
 285,0.00044791,-0.00106540,-0.00001076,0.00264440,-0.00001059,0.000003
 75,0.00006769,0.00004081,0.00001552,-0.00011906,-0.00001704,0.00000186
 ,0.00002947,-0.00000591,-0.00001012,0.00002829,-0.00217364,-0.00128918
 ,0.00399011,-0.00306223,-0.00234177,0.00566255,-0.00841098,0.00251122,
 0.00243183,-0.00016714,0.00016830,-0.00052674,-0.11362054,0.01229144,-
 0.08436669,0.00200026,0.00045967,-0.00374869,0.12448466,-0.01214634,0.
 07650805,-0.00430216,-0.00267074,-0.00220759,0.00016677,0.00365649,0.0
 0050577,0.00129267,-0.00396378,0.00043985,-0.00753382,0.01283120,-0.00
 368352,0.00528132,-0.00765405,0.00157712,-0.04942119,-0.03653920,-0.03
 140536,-0.00223632,-0.00001530,-0.00041146,-0.00022169,0.00015507,-0.0
 0007873,-0.00012911,0.00006985,-0.00008411,-0.00087263,-0.00005757,-0.
 00033183,-0.24032414,-0.19865463,-0.10050200,-0.00645652,-0.00388511,-
 0.00327193,0.01164809,0.00990953,0.00469850,0.00023799,-0.00008316,0.0
 0012744,0.02033412,-0.02970068,-0.00129492,0.00023057,0.00009212,0.000
 84233,0.00136587,-0.00285676,0.00151394,0.27391282,-0.00714322,0.00168
 678,-0.00316080,0.00221531,0.00702341,0.00188359,0.00556120,-0.0031142
 2,0.00229336,-0.00283490,0.00926125,-0.00079153,0.00807233,-0.01206545
 ,0.00240602,-0.03693446,0.00940516,-0.01751108,0.00076217,0.00267811,0
 .00080028,-0.00034594,-0.00000336,-0.00017323,-0.00003541,0.00039728,0
 .00003174,0.00000745,-0.00005401,0.00006183,-0.21194768,-0.39164890,-0
 .13098071,-0.00478824,-0.00869291,-0.00295327,0.01850495,0.00210772,0.
 00807342,-0.00018781,0.00046546,0.00001088,-0.02795617,-0.09197049,-0.
 02263491,-0.00136357,-0.00214745,-0.00087214,-0.00067982,0.00335398,0.
 00021920,0.25739546,0.47264257,-0.00240153,-0.00101002,-0.00162031,0.0
 0026068,0.00229054,0.00034124,0.00152903,-0.00193001,-0.00048350,-0.00
 481889,0.00563926,0.00184736,0.00335206,-0.00429288,0.00049008,-0.0308
 1624,-0.01561136,-0.00034448,-0.00051875,0.00049095,-0.00084999,-0.000
 14482,0.00003188,0.00002542,-0.00007986,0.00004921,0.00008202,-0.00025
 804,0.00000683,-0.00031004,-0.10202246,-0.12654150,-0.11798260,-0.0033
 2201,-0.00211421,-0.00163512,0.00508724,0.00397957,0.00614954,0.000118
 57,0.00001206,0.00002252,-0.00093971,-0.02222643,0.01437430,0.00070814
 ,0.00009923,-0.00125407,0.00177412,-0.00072018,-0.00230272,0.12673176,
 0.16310748,0.11316032,-0.00039536,-0.00010074,-0.00020244,0.00002033,0
 .00049802,0.00008651,0.00038619,-0.00045545,0.00014625,-0.00010458,-0.
 00023065,-0.00003252,0.00047872,-0.00013374,0.00017794,0.00047167,0.00
 019171,0.00061567,-0.00013520,0.00015808,0.00005490,0.00004976,-0.0000
 4852,-0.00000297,0.00005571,0.00000769,0.00002331,0.00004564,0.0000389
 3,0.00000216,-0.00795719,-0.00857315,-0.00329652,-0.00042614,0.0003752
 9,-0.00018897,0.00032049,0.00030483,0.00028839,0.00001877,0.00002497,-
 0.00000924,0.00023849,-0.00004235,0.00030572,0.00006608,0.00016543,0.0
 0001936,0.00002461,0.00022131,-0.00023240,0.00394710,0.00594927,-0.000
 43967,0.11315006,-0.00017365,-0.00019639,-0.00005642,0.00002824,0.0001
 0168,0.00001032,0.00000681,-0.00017367,-0.00005901,0.00009265,-0.00016
 337,0.00006275,0.00045097,0.00017123,0.00027663,-0.00022233,0.00006815
 ,0.00055321,0.00011570,0.00001575,-0.00014653,0.00004679,-0.00002733,0
 .00001655,0.00001401,-0.00001617,-0.00000094,0.00001721,0.00001087,-0.
 00000818,-0.00443384,-0.00141636,0.00117400,-0.00051744,0.00031818,-0.
 00018866,0.00077937,0.00006323,0.00036945,0.00006282,-0.00000319,0.000
 00715,-0.00063457,-0.00059173,-0.00134545,-0.00002329,0.00000160,0.000
 07160,0.00004144,-0.00066828,0.00065716,0.00205954,-0.00171410,-0.0009
 2168,0.01344213,0.03114638,0.00016457,0.00014708,0.00008037,0.00000838
 ,-0.00022311,-0.00003459,-0.00018969,0.00016058,-0.00005494,-0.0002290
 3,0.00052925,-0.00023272,-0.00030195,-0.00008938,-0.00033487,-0.001075
 19,-0.00088829,-0.00149430,0.00008079,-0.00006788,0.00018832,-0.000056
 48,0.00003826,0.00001041,-0.00003568,0.00000407,-0.00000901,-0.0000621
 2,-0.00002116,0.00000393,0.00504432,0.00857484,0.00625205,0.00030503,-
 0.00056101,0.00007704,-0.00022569,-0.00014257,-0.00031015,-0.00005090,
 -0.00001007,0.00001608,0.00014326,-0.00106754,0.00060552,-0.00004863,-
 0.00012710,-0.00002454,-0.00004981,0.00026857,0.00009411,-0.00621329,-
 0.00669845,-0.00261201,-0.13974955,0.05167371,0.42955616,0.00039127,0.
 00005414,0.00019532,-0.00005087,-0.00047683,-0.00009956,-0.00035126,0.
 00045122,-0.00007872,0.00027787,-0.00023019,0.00014641,-0.00040260,0.0
 0007583,-0.00001833,-0.00023212,0.00009652,-0.00050255,0.00003313,-0.0
 0000944,-0.00003673,-0.00000575,0.00003005,-0.00000232,-0.00002515,-0.
 00000192,-0.00000945,-0.00001453,-0.00002268,0.00000701,0.00048500,0.0
 0078121,0.00050646,0.00036189,0.00008767,0.00014854,-0.00059392,-0.000
 20385,-0.00040481,-0.00000456,-0.00002025,0.00000992,-0.00002283,0.000
 51041,0.00008572,-0.00001828,-0.00008620,0.00000857,-0.00001287,-0.000
 19282,0.00032912,-0.00475836,-0.00232137,0.00513801,-0.10300923,-0.008
 42742,0.14078214,0.31209535,0.00014806,0.00010646,0.00004679,-0.000039
 21,-0.00008580,-0.00002555,0.00001367,0.00016670,0.00009843,0.00003838
 ,0.00006472,-0.00003260,-0.00036485,-0.00015567,-0.00017005,0.00002962
 ,0.00000192,-0.00033006,-0.00013151,0.00003295,0.00013722,-0.00003749,
 0.00002496,-0.00000543,-0.00000668,0.00001366,0.00000190,0.00000624,-0
 .00000172,0.00000022,0.00005420,-0.00147382,-0.00190714,0.00048902,-0.
 00011054,0.00020973,-0.00063598,0.00004332,-0.00034708,-0.00001762,0.0
 0001079,-0.00001692,0.00047676,0.00049264,0.00068558,0.00003428,0.0000
 4027,-0.00003863,0.00010051,0.00027875,-0.00040798,0.00075328,0.002472
 67,0.00013074,0.00361127,-0.01585908,-0.04837811,0.11034764,0.10875082
 ,-0.00015554,-0.00009696,-0.00006127,0.00002564,0.00019135,0.00006210,
 0.00014200,-0.00016197,0.00004982,0.00007447,-0.00025198,0.00008571,0.
 00023970,-0.00000504,0.00022928,0.00020742,0.00036716,0.00067443,-0.00
 005318,0.00004997,-0.00008794,0.00003896,-0.00002786,-0.00001276,0.000
 03007,-0.00000142,0.00000014,0.00004157,0.00001996,-0.00000683,-0.0019
 9602,-0.00471790,-0.00567887,-0.00045663,0.00026788,-0.00013683,0.0005
 1271,0.00016248,0.00038957,0.00004658,0.00002111,-0.00001006,-0.000644
 91,-0.00028063,-0.00019486,0.00003125,0.00006115,-0.00002489,-0.000005
 58,-0.00019899,0.00014144,0.01257986,0.00577297,-0.00668510,0.18998104
 ,-0.02281695,-0.41237071,-0.06862020,0.10042388,0.53860296,-0.00021364
 ,-0.00024824,-0.00014437,-0.00003058,0.00021604,0.00000121,0.00016230,
 -0.00005531,0.00002172,0.00010540,0.00077410,0.00019389,0.00061445,-0.
 00077847,0.00018244,-0.00131241,0.00004916,0.00095010,0.00007398,-0.00
 011776,-0.00008157,-0.00004513,0.00002950,-0.00000952,-0.00002928,-0.0
 0000043,-0.00000662,-0.00002615,-0.00002279,-0.00003278,0.00019375,0.0
 0261239,0.00239134,-0.00025306,0.00008610,-0.00036949,0.00088126,0.000
 58110,0.00034021,0.00000219,-0.00002292,-0.00001513,-0.00009561,-0.000
 40914,0.00000681,-0.00002368,-0.00007318,0.00003330,-0.00001170,-0.000
 05962,0.00004799,-0.00149938,-0.00172893,0.00098603,-0.00593744,-0.002
 60859,0.00180232,-0.17706938,-0.12499552,-0.10777085,0.30759219,-0.000
 06943,0.00012866,-0.00006444,0.00006486,0.00008890,0.00003852,0.000117
 00,-0.00000478,0.00004555,0.00001176,-0.00004410,-0.00013479,-0.000048
 33,-0.00006418,-0.00003729,0.00005871,-0.00015600,0.00014536,-0.000051
 10,0.00005594,0.00009217,-0.00000880,-0.00000046,0.00000651,-0.0000032
 2,0.00001070,0.00000062,0.00001439,0.00000370,0.00000393,-0.00010535,-
 0.00010667,0.00073149,0.00053342,-0.00009650,0.00005820,-0.00031658,-0
 .00015455,0.00032386,-0.00000903,0.00001757,-0.00000463,-0.00047616,-0
 .00034753,0.00091559,0.00001935,0.00003496,-0.00003451,0.00009606,0.00
 006004,-0.00007173,-0.00096762,0.00013290,-0.00027382,-0.01171024,-0.0
 1098787,-0.00176151,-0.07271487,-0.10687526,-0.05182638,-0.06055480,0.
 43650827,0.00014709,0.00000969,0.00007899,-0.00004726,-0.00014594,-0.0
 0001957,-0.00010228,-0.00004953,0.00003971,0.00011511,-0.00081419,-0.0
 0017382,-0.00024607,0.00052437,-0.00008780,0.00112210,0.00001558,0.000
 07879,-0.00016413,0.00012602,0.00001826,0.00003887,-0.00003239,-0.0000
 0098,0.00005858,-0.00000291,0.00000687,0.00004617,0.00004351,-0.000007
 47,-0.00325470,-0.00515541,-0.00093806,0.00000489,0.00074021,0.0001477
 0,-0.00052003,-0.00044146,-0.00058068,0.00005410,0.00001689,-0.0000257
 0,0.00090803,0.00233302,-0.00150206,-0.00001913,0.00008707,0.00005902,
 -0.00010822,-0.00009265,0.00002802,0.00067428,0.00204107,-0.00101156,-
 0.04262739,-0.03122528,-0.01633804,-0.06835860,-0.05473736,-0.10310929
 ,0.23470453,-0.11656371,0.25757807,-0.00007174,0.00021226,-0.00012272,
 -0.00005986,-0.00000303,-0.00002824,-0.00002348,0.00000719,0.00000698,
 -0.00015034,-0.00008664,-0.00004912,-0.00020148,0.00036185,-0.00011287
 ,0.00004388,-0.00026426,-0.00011990,0.00003789,0.00008865,0.00016141,0
 .00000258,-0.00000424,0.00002173,0.00000759,0.00000627,0.00001274,0.00
 000728,0.00001196,0.00001511,0.00123460,0.00030542,0.00005570,0.000408
 98,-0.00039417,0.00015213,-0.00044410,-0.00016596,-0.00007587,-0.00000
 938,0.00002257,0.00001207,0.00001137,-0.00006450,0.00007608,-0.0000040
 2,0.00003308,-0.00003238,-0.00002625,0.00008021,-0.00010705,-0.0006620
 3,-0.00020062,0.00007635,-0.00130847,-0.00011657,-0.00004280,-0.027072
 78,0.01012593,-0.02424836,-0.12307808,0.14612001,-0.12242593,0.1513578
 5,-0.00009936,-0.00001922,0.00000597,0.00003372,0.00009095,0.00002260,
 0.00000016,-0.00008614,-0.00003878,-0.00015669,-0.00011393,-0.00008659
 ,0.00000826,0.00025290,0.00012902,0.00021076,0.00011092,-0.00008187,0.
 00002093,-0.00005673,-0.00015336,0.00004248,-0.00002180,-0.00000926,-0
 .00000459,-0.00000329,-0.00000135,-0.00000869,-0.00001507,0.00001868,0
 .00001564,-0.00021268,0.00068096,0.00019677,-0.00014017,0.00005780,-0.
 00016167,-0.00005402,-0.00002820,-0.00002011,-0.00001276,0.00001326,0.
 00000127,0.00007235,-0.00000318,-0.00000233,0.00000989,-0.00000019,-0.
 00003355,0.00000826,-0.00007470,0.00012605,-0.00021642,-0.00019566,-0.
 00369407,-0.00007954,-0.00136017,-0.02772687,0.01206127,-0.02695181,0.
 18732731,-0.31820373,0.20332341,-0.15607543,0.30662894,0.00021772,-0.0
 0011085,0.00015725,-0.00004288,-0.00018528,-0.00010755,-0.00015608,0.0
 0013735,-0.00013983,0.00020094,0.00025308,0.00021917,0.00014160,-0.000
 20629,0.00004455,-0.00006094,0.00019616,-0.00025084,0.00012149,-0.0001
 7335,-0.00024499,-0.00003135,0.00003373,0.00000849,-0.00005418,-0.0000
 1451,-0.00000293,-0.00004649,-0.00003928,0.00000434,0.00027349,0.00129
 369,-0.00047909,-0.00002831,0.00008338,-0.00002875,-0.00000019,-0.0000
 3261,-0.00005434,-0.00002382,-0.00005059,0.00000934,0.00030484,0.00013
 539,-0.00035385,-0.00000762,-0.00005688,0.00003286,0.00000004,-0.00004
 087,0.00005578,-0.00020610,-0.00092570,0.00059870,-0.00491957,0.001896
 57,-0.00306810,-0.00922597,0.00466242,-0.01185604,-0.13323157,0.168411
 00,-0.13424041,0.14677496,-0.17526657,0.14969626\\0.00000370,-0.000002
 10,-0.00001209,-0.00000054,-0.00000196,-0.00002346,0.00001014,-0.00000
 366,-0.00001710,-0.00000740,-0.00000205,-0.00001360,-0.00001613,0.0000
 0423,-0.00000519,-0.00000035,0.00000015,0.00000222,-0.00000918,-0.0000
 0034,0.00000147,-0.00000540,-0.00000079,-0.00001430,0.00001340,-0.0000
 0874,-0.00002776,0.00000913,-0.00000916,-0.00002082,-0.00001980,0.0000
 4975,-0.00005129,0.00001885,0.00000082,-0.00000017,-0.00000418,-0.0000
 0066,0.00000670,0.00000521,-0.00000867,-0.00000407,0.00000738,0.000018
 63,-0.00000124,0.00000251,-0.00000240,-0.00000291,-0.00001299,0.000012
 51,0.00003911,0.00003072,-0.00003465,0.00002635,-0.00008363,-0.0000658
 7,0.00016049,0.00004555,0.00003460,-0.00013900,-0.00000959,-0.00000526
 ,0.00011415,0.00002261,0.00002563,-0.00001749\\\@


    WHAT WE HAVE LEARNED
 IS LIKE A HANDFUL OF EARTH;
  WHAT WE HAVE YET TO LEARN
   IS LIKE THE WHOLE WORLD.

         -- AVVAYIAR
 Job cpu time:       0 days  0 hours 35 minutes 18.5 seconds.
 Elapsed time:       0 days  0 hours  1 minutes 46.8 seconds.
 File lengths (MBytes):  RWF=   1408 Int=      0 D2E=      0 Chk=     32 Scr=     32
 Normal termination of Gaussian 16 at Tue Feb 26 10:47:40 2019.
