 Entering Gaussian System, Link 0=g16
 Input=rxn902loosebasis.com
 Output=rxn902loosebasis.log
 Initial command:
 /shared/centos7/gaussian/g16/l1.exe "/scratch/dinius.ab/QMscratch/Gau-43017.inp" -scrdir="/scratch/dinius.ab/QMscratch/"
 Default is to use a total of  20 processors:
                               20 via shared-memory
                                1 via Linda
 Entering Link 1 = /shared/centos7/gaussian/g16/l1.exe PID=     43018.
  
 Copyright (c) 1988,1990,1992,1993,1995,1998,2003,2009,2016,
            Gaussian, Inc.  All Rights Reserved.
  
 This is part of the Gaussian(R) 16 program.  It is based on
 the Gaussian(R) 09 system (copyright 2009, Gaussian, Inc.),
 the Gaussian(R) 03 system (copyright 2003, Gaussian, Inc.),
 the Gaussian(R) 98 system (copyright 1998, Gaussian, Inc.),
 the Gaussian(R) 94 system (copyright 1995, Gaussian, Inc.),
 the Gaussian 92(TM) system (copyright 1992, Gaussian, Inc.),
 the Gaussian 90(TM) system (copyright 1990, Gaussian, Inc.),
 the Gaussian 88(TM) system (copyright 1988, Gaussian, Inc.),
 the Gaussian 86(TM) system (copyright 1986, Carnegie Mellon
 University), and the Gaussian 82(TM) system (copyright 1983,
 Carnegie Mellon University). Gaussian is a federally registered
 trademark of Gaussian, Inc.
  
 This software contains proprietary and confidential information,
 including trade secrets, belonging to Gaussian, Inc.
  
 This software is provided under written license and may be
 used, copied, transmitted, or stored only in accord with that
 written license.
  
 The following legend is applicable only to US Government
 contracts under FAR:
  
                    RESTRICTED RIGHTS LEGEND
  
 Use, reproduction and disclosure by the US Government is
 subject to restrictions as set forth in subparagraphs (a)
 and (c) of the Commercial Computer Software - Restricted
 Rights clause in FAR 52.227-19.
  
 Gaussian, Inc.
 340 Quinnipiac St., Bldg. 40, Wallingford CT 06492
  
  
 ---------------------------------------------------------------
 Warning -- This program may not be used in any manner that
 competes with the business of Gaussian, Inc. or will provide
 assistance to any competitor of Gaussian, Inc.  The licensee
 of this program is prohibited from giving any competitor of
 Gaussian, Inc. access to this program.  By using this program,
 the user acknowledges that Gaussian, Inc. is engaged in the
 business of creating and licensing software in the field of
 computational chemistry and represents and warrants to the
 licensee that it is not a competitor of Gaussian, Inc. and that
 it will not use this program in any manner prohibited above.
 ---------------------------------------------------------------
  

 Cite this work as:
 Gaussian 16, Revision A.03,
 M. J. Frisch, G. W. Trucks, H. B. Schlegel, G. E. Scuseria, 
 M. A. Robb, J. R. Cheeseman, G. Scalmani, V. Barone, 
 G. A. Petersson, H. Nakatsuji, X. Li, M. Caricato, A. V. Marenich, 
 J. Bloino, B. G. Janesko, R. Gomperts, B. Mennucci, H. P. Hratchian, 
 J. V. Ortiz, A. F. Izmaylov, J. L. Sonnenberg, D. Williams-Young, 
 F. Ding, F. Lipparini, F. Egidi, J. Goings, B. Peng, A. Petrone, 
 T. Henderson, D. Ranasinghe, V. G. Zakrzewski, J. Gao, N. Rega, 
 G. Zheng, W. Liang, M. Hada, M. Ehara, K. Toyota, R. Fukuda, 
 J. Hasegawa, M. Ishida, T. Nakajima, Y. Honda, O. Kitao, H. Nakai, 
 T. Vreven, K. Throssell, J. A. Montgomery, Jr., J. E. Peralta, 
 F. Ogliaro, M. J. Bearpark, J. J. Heyd, E. N. Brothers, K. N. Kudin, 
 V. N. Staroverov, T. A. Keith, R. Kobayashi, J. Normand, 
 K. Raghavachari, A. P. Rendell, J. C. Burant, S. S. Iyengar, 
 J. Tomasi, M. Cossi, J. M. Millam, M. Klene, C. Adamo, R. Cammi, 
 J. W. Ochterski, R. L. Martin, K. Morokuma, O. Farkas, 
 J. B. Foresman, and D. J. Fox, Gaussian, Inc., Wallingford CT, 2016.
 
 ******************************************
 Gaussian 16:  EM64L-G16RevA.03 25-Dec-2016
                26-Feb-2019 
 ******************************************
 ----------------------------------------------------------------------
 # m062x/6-31G(d,p) Opt=(TS,Loose,maxcycle=1000,CalcFC,NoEigenTest) Int
 (Grid=SG1) freq
 ----------------------------------------------------------------------
 1/5=1,6=1000,7=-1,10=4,11=1,18=20,26=2,38=1/1,3;
 2/9=110,12=2,17=6,18=5,40=1/2;
 3/5=1,6=6,7=101,11=2,25=1,30=1,71=2,74=-55,75=1,140=1/1,2,3;
 4//1;
 5/5=2,38=5/2;
 8/6=4,10=90,11=11/1;
 11/6=1,8=1,9=11,15=111,16=1/1,2,10;
 10/6=1,13=1/2;
 6/7=2,8=2,9=2,10=2,28=1/1;
 7/10=1,18=20,25=1/1,2,3,16;
 1/5=1,6=1000,7=-1,10=4,11=1,18=20,26=2/3(2);
 2/9=110/2;
 99//99;
 2/9=110/2;
 3/5=1,6=6,7=101,11=2,25=1,30=1,71=1,74=-55,75=1/1,2,3;
 4/5=5,16=3,69=1/1;
 5/5=2,38=5/2;
 7//1,2,3,16;
 1/5=1,6=1000,7=-1,11=1,18=20,26=2/3(-5);
 2/9=110/2;
 6/7=2,8=2,9=2,10=2,19=2,28=1/1;
 99/9=1/99;
 -----
 Title
 -----
 Symbolic Z-matrix:
 Charge =  0 Multiplicity = 2
 C                     2.8507   -1.68178   0.07621 
 C                     3.62619  -0.51673   0.09751 
 C                     3.0202    0.71857   0.06023 
 C                     1.61845   0.82247  -0.00025 
 C                     1.47307  -1.6008    0.017 
 C                     0.8453   -0.35686  -0.02123 
 H                     0.85938  -2.48953  -0.00107 
 H                     3.333    -2.64854   0.1023 
 H                     4.70427  -0.58783   0.14015 
 H                     3.61255   1.62322   0.07475 
 C                    -0.62386  -0.26459  -0.08821 
 C                     0.96701   2.08907  -0.04158 
 C                    -0.418     2.18671  -0.10048 
 H                     1.57279   2.98471  -0.02427 
 C                    -1.20778   1.05858  -0.12319 
 H                    -0.8805    3.16337  -0.12388 
 H                    -2.28744   1.11989  -0.15198 
 O                    -1.32552  -1.28371  -0.11527 
 H                    -3.07819  -1.05844  -0.42953 
 O                    -4.00504  -0.76504  -0.5324 
 O                    -4.17942   0.01737   0.64038 
 H                    -4.66362  -0.58355   1.21569 
 
 Add virtual bond connecting atoms H19        and O18        Dist= 3.39D+00.

 GradGradGradGradGradGradGradGradGradGradGradGradGradGradGradGradGradGrad
 Berny optimization.
 Initialization pass.
                           ----------------------------
                           !    Initial Parameters    !
                           ! (Angstroms and Degrees)  !
 --------------------------                            --------------------------
 ! Name  Definition              Value          Derivative Info.                !
 --------------------------------------------------------------------------------
 ! R1    R(1,2)                  1.3997         calculate D2E/DX2 analytically  !
 ! R2    R(1,5)                  1.3813         calculate D2E/DX2 analytically  !
 ! R3    R(1,8)                  1.0807         calculate D2E/DX2 analytically  !
 ! R4    R(2,3)                  1.3764         calculate D2E/DX2 analytically  !
 ! R5    R(2,9)                  1.0813         calculate D2E/DX2 analytically  !
 ! R6    R(3,4)                  1.4069         calculate D2E/DX2 analytically  !
 ! R7    R(3,10)                 1.0814         calculate D2E/DX2 analytically  !
 ! R8    R(4,6)                  1.4103         calculate D2E/DX2 analytically  !
 ! R9    R(4,12)                 1.4249         calculate D2E/DX2 analytically  !
 ! R10   R(5,6)                  1.3939         calculate D2E/DX2 analytically  !
 ! R11   R(5,7)                  1.0802         calculate D2E/DX2 analytically  !
 ! R12   R(6,11)                 1.4736         calculate D2E/DX2 analytically  !
 ! R13   R(11,15)                1.4467         calculate D2E/DX2 analytically  !
 ! R14   R(11,18)                1.2376         calculate D2E/DX2 analytically  !
 ! R15   R(12,13)                1.3897         calculate D2E/DX2 analytically  !
 ! R16   R(12,14)                1.0814         calculate D2E/DX2 analytically  !
 ! R17   R(13,15)                1.3773         calculate D2E/DX2 analytically  !
 ! R18   R(13,16)                1.0809         calculate D2E/DX2 analytically  !
 ! R19   R(15,17)                1.0818         calculate D2E/DX2 analytically  !
 ! R20   R(18,19)                1.7948         calculate D2E/DX2 analytically  !
 ! R21   R(19,20)                0.9776         calculate D2E/DX2 analytically  !
 ! R22   R(20,21)                1.4206         calculate D2E/DX2 analytically  !
 ! R23   R(21,22)                0.9626         calculate D2E/DX2 analytically  !
 ! A1    A(2,1,5)              120.2934         calculate D2E/DX2 analytically  !
 ! A2    A(2,1,8)              119.7997         calculate D2E/DX2 analytically  !
 ! A3    A(5,1,8)              119.9065         calculate D2E/DX2 analytically  !
 ! A4    A(1,2,3)              120.177          calculate D2E/DX2 analytically  !
 ! A5    A(1,2,9)              119.8859         calculate D2E/DX2 analytically  !
 ! A6    A(3,2,9)              119.9369         calculate D2E/DX2 analytically  !
 ! A7    A(2,3,4)              120.4039         calculate D2E/DX2 analytically  !
 ! A8    A(2,3,10)             120.6134         calculate D2E/DX2 analytically  !
 ! A9    A(4,3,10)             118.9826         calculate D2E/DX2 analytically  !
 ! A10   A(3,4,6)              119.0181         calculate D2E/DX2 analytically  !
 ! A11   A(3,4,12)             121.4935         calculate D2E/DX2 analytically  !
 ! A12   A(6,4,12)             119.4884         calculate D2E/DX2 analytically  !
 ! A13   A(1,5,6)              120.1773         calculate D2E/DX2 analytically  !
 ! A14   A(1,5,7)              121.2732         calculate D2E/DX2 analytically  !
 ! A15   A(6,5,7)              118.5495         calculate D2E/DX2 analytically  !
 ! A16   A(4,6,5)              119.9304         calculate D2E/DX2 analytically  !
 ! A17   A(4,6,11)             119.6618         calculate D2E/DX2 analytically  !
 ! A18   A(5,6,11)             120.4076         calculate D2E/DX2 analytically  !
 ! A19   A(6,11,15)            117.4373         calculate D2E/DX2 analytically  !
 ! A20   A(6,11,18)            120.9762         calculate D2E/DX2 analytically  !
 ! A21   A(15,11,18)           121.5864         calculate D2E/DX2 analytically  !
 ! A22   A(4,12,13)            121.2868         calculate D2E/DX2 analytically  !
 ! A23   A(4,12,14)            118.6616         calculate D2E/DX2 analytically  !
 ! A24   A(13,12,14)           120.0514         calculate D2E/DX2 analytically  !
 ! A25   A(12,13,15)           120.9736         calculate D2E/DX2 analytically  !
 ! A26   A(12,13,16)           119.3964         calculate D2E/DX2 analytically  !
 ! A27   A(15,13,16)           119.6293         calculate D2E/DX2 analytically  !
 ! A28   A(11,15,13)           121.1513         calculate D2E/DX2 analytically  !
 ! A29   A(11,15,17)           117.0847         calculate D2E/DX2 analytically  !
 ! A30   A(13,15,17)           121.7571         calculate D2E/DX2 analytically  !
 ! A31   A(11,18,19)           117.0078         calculate D2E/DX2 analytically  !
 ! A32   A(19,20,21)           101.2335         calculate D2E/DX2 analytically  !
 ! A33   A(20,21,22)           102.2008         calculate D2E/DX2 analytically  !
 ! A34   L(18,19,20,16,-1)     169.7573         calculate D2E/DX2 analytically  !
 ! A35   L(18,19,20,16,-2)     183.9165         calculate D2E/DX2 analytically  !
 ! D1    D(5,1,2,3)              0.033          calculate D2E/DX2 analytically  !
 ! D2    D(5,1,2,9)           -179.7697         calculate D2E/DX2 analytically  !
 ! D3    D(8,1,2,3)            179.7911         calculate D2E/DX2 analytically  !
 ! D4    D(8,1,2,9)             -0.0116         calculate D2E/DX2 analytically  !
 ! D5    D(2,1,5,6)             -0.0354         calculate D2E/DX2 analytically  !
 ! D6    D(2,1,5,7)            179.9452         calculate D2E/DX2 analytically  !
 ! D7    D(8,1,5,6)           -179.7932         calculate D2E/DX2 analytically  !
 ! D8    D(8,1,5,7)              0.1874         calculate D2E/DX2 analytically  !
 ! D9    D(1,2,3,4)             -0.0343         calculate D2E/DX2 analytically  !
 ! D10   D(1,2,3,10)          -179.9011         calculate D2E/DX2 analytically  !
 ! D11   D(9,2,3,4)            179.7683         calculate D2E/DX2 analytically  !
 ! D12   D(9,2,3,10)            -0.0985         calculate D2E/DX2 analytically  !
 ! D13   D(2,3,4,6)              0.0377         calculate D2E/DX2 analytically  !
 ! D14   D(2,3,4,12)          -179.9139         calculate D2E/DX2 analytically  !
 ! D15   D(10,3,4,6)           179.9066         calculate D2E/DX2 analytically  !
 ! D16   D(10,3,4,12)           -0.0449         calculate D2E/DX2 analytically  !
 ! D17   D(3,4,6,5)             -0.0399         calculate D2E/DX2 analytically  !
 ! D18   D(3,4,6,11)          -179.832          calculate D2E/DX2 analytically  !
 ! D19   D(12,4,6,5)           179.9127         calculate D2E/DX2 analytically  !
 ! D20   D(12,4,6,11)            0.1206         calculate D2E/DX2 analytically  !
 ! D21   D(3,4,12,13)         -179.9613         calculate D2E/DX2 analytically  !
 ! D22   D(3,4,12,14)           -0.0833         calculate D2E/DX2 analytically  !
 ! D23   D(6,4,12,13)            0.0874         calculate D2E/DX2 analytically  !
 ! D24   D(6,4,12,14)          179.9653         calculate D2E/DX2 analytically  !
 ! D25   D(1,5,6,4)              0.0391         calculate D2E/DX2 analytically  !
 ! D26   D(1,5,6,11)           179.8297         calculate D2E/DX2 analytically  !
 ! D27   D(7,5,6,4)           -179.942          calculate D2E/DX2 analytically  !
 ! D28   D(7,5,6,11)            -0.1515         calculate D2E/DX2 analytically  !
 ! D29   D(4,6,11,15)           -0.2938         calculate D2E/DX2 analytically  !
 ! D30   D(4,6,11,18)          179.5995         calculate D2E/DX2 analytically  !
 ! D31   D(5,6,11,15)          179.9151         calculate D2E/DX2 analytically  !
 ! D32   D(5,6,11,18)           -0.1916         calculate D2E/DX2 analytically  !
 ! D33   D(6,11,15,13)           0.2741         calculate D2E/DX2 analytically  !
 ! D34   D(6,11,15,17)        -178.7882         calculate D2E/DX2 analytically  !
 ! D35   D(18,11,15,13)       -179.6185         calculate D2E/DX2 analytically  !
 ! D36   D(18,11,15,17)          1.3192         calculate D2E/DX2 analytically  !
 ! D37   D(6,11,18,19)        -171.6007         calculate D2E/DX2 analytically  !
 ! D38   D(15,11,18,19)          8.2881         calculate D2E/DX2 analytically  !
 ! D39   D(4,12,13,15)          -0.1133         calculate D2E/DX2 analytically  !
 ! D40   D(4,12,13,16)         179.5862         calculate D2E/DX2 analytically  !
 ! D41   D(14,12,13,15)       -179.9896         calculate D2E/DX2 analytically  !
 ! D42   D(14,12,13,16)         -0.2901         calculate D2E/DX2 analytically  !
 ! D43   D(12,13,15,11)         -0.0754         calculate D2E/DX2 analytically  !
 ! D44   D(12,13,15,17)        178.9427         calculate D2E/DX2 analytically  !
 ! D45   D(16,13,15,11)       -179.7743         calculate D2E/DX2 analytically  !
 ! D46   D(16,13,15,17)         -0.7562         calculate D2E/DX2 analytically  !
 ! D47   D(11,18,20,21)        -61.1013         calculate D2E/DX2 analytically  !
 ! D48   D(19,20,21,22)       -101.156          calculate D2E/DX2 analytically  !
 --------------------------------------------------------------------------------
 Trust Radius=3.00D-01 FncErr=1.00D-05 GrdErr=1.00D-04 EigMax=2.50D+02 EigMin=1.00D-04
 Number of steps in this run=    132 maximum allowed number of steps=    132.
 Search for a saddle point of order  1.
 GradGradGradGradGradGradGradGradGradGradGradGradGradGradGradGradGradGrad

                          Input orientation:                          
 ---------------------------------------------------------------------
 Center     Atomic      Atomic             Coordinates (Angstroms)
 Number     Number       Type             X           Y           Z
 ---------------------------------------------------------------------
      1          6           0        2.850700   -1.681780    0.076210
      2          6           0        3.626190   -0.516730    0.097510
      3          6           0        3.020200    0.718570    0.060230
      4          6           0        1.618450    0.822470   -0.000250
      5          6           0        1.473070   -1.600800    0.017000
      6          6           0        0.845300   -0.356860   -0.021230
      7          1           0        0.859380   -2.489530   -0.001070
      8          1           0        3.333000   -2.648540    0.102300
      9          1           0        4.704270   -0.587830    0.140150
     10          1           0        3.612550    1.623220    0.074750
     11          6           0       -0.623860   -0.264590   -0.088210
     12          6           0        0.967010    2.089070   -0.041580
     13          6           0       -0.418000    2.186710   -0.100480
     14          1           0        1.572790    2.984710   -0.024270
     15          6           0       -1.207780    1.058580   -0.123190
     16          1           0       -0.880500    3.163370   -0.123880
     17          1           0       -2.287440    1.119890   -0.151980
     18          8           0       -1.325520   -1.283710   -0.115270
     19          1           0       -3.078190   -1.058440   -0.429530
     20          8           0       -4.005040   -0.765040   -0.532400
     21          8           0       -4.179420    0.017370    0.640380
     22          1           0       -4.663620   -0.583550    1.215690
 ---------------------------------------------------------------------
                    Distance matrix (angstroms):
                    1          2          3          4          5
     1  C    0.000000
     2  C    1.399707   0.000000
     3  C    2.406380   1.376437   0.000000
     4  C    2.792052   2.415374   1.406896   0.000000
     5  C    1.381278   2.411973   2.788361   2.427688   0.000000
     6  C    2.405522   2.788011   2.427628   1.410326   1.393895
     7  H    2.150299   3.399543   3.868437   3.397872   1.080177
     8  H    1.080703   2.151882   3.381870   3.872739   2.136440
     9  H    2.153262   1.081263   2.132876   3.395724   3.388499
    10  H    3.391673   2.140114   1.081425   2.150177   3.869756
    11  C    3.756066   4.261571   3.777276   2.493470   2.488703
    12  C    4.216808   3.725692   2.470673   1.424906   3.724872
    13  C    5.067626   4.868599   3.741989   2.453228   4.234995
    14  H    4.839347   4.060956   2.690265   2.162855   4.586780
    15  C    4.901081   5.088966   4.245594   2.838739   3.778745
    16  H    6.118608   5.822577   4.607212   3.426346   5.315680
    17  H    5.856783   6.140993   5.327019   3.920135   4.644582
    18  O    4.199516   5.015273   4.788028   3.621627   2.819601
    19  H    5.982981   6.746846   6.370870   5.077453   4.605161
    20  O    6.943485   7.661209   7.204603   5.867454   5.568664
    21  O    7.254515   7.842673   7.256913   5.888454   5.912505
    22  H    7.679162   8.365150   7.878559   6.551321   6.334873
                    6          7          8          9         10
     6  C    0.000000
     7  H    2.132812   0.000000
     8  H    3.384628   2.480880   0.000000
     9  H    3.869243   4.291804   2.475548   0.000000
    10  H    3.404057   4.949789   4.280986   2.466753   0.000000
    11  C    1.473578   2.675435   4.623446   5.342808   4.640857
    12  C    2.449041   4.580044   5.297505   4.600645   2.688760
    13  C    2.841119   4.848588   6.122970   5.830405   4.073519
    14  H    3.419845   5.520579   5.903208   4.753551   2.454400
    15  C    2.495797   4.108181   5.866197   6.142666   4.857322
    16  H    3.921854   5.915872   7.182133   6.732820   4.753842
    17  H    3.465825   4.790946   6.771637   7.203170   5.925760
    18  O    2.362277   2.498166   4.859208   6.075184   5.733314
    19  H    4.006582   4.211419   6.626811   7.817461   7.225760
    20  O    4.894252   5.188329   7.602450   8.737037   8.006253
    21  O    5.081888   5.664407   7.989559   8.918321   7.975806
    22  H    5.650625   5.967981   8.333652   9.429431   8.640982
                   11         12         13         14         15
    11  C    0.000000
    12  C    2.841260   0.000000
    13  C    2.459959   1.389696   0.000000
    14  H    3.922666   1.081407   2.146126   0.000000
    15  C    1.446708   2.407962   1.377296   3.383982   0.000000
    16  H    3.437739   2.138735   1.080888   2.461803   2.130083
    17  H    2.165260   3.397491   2.153036   4.288967   1.081783
    18  O    1.237604   4.078820   3.587147   5.160222   2.345261
    19  H    2.602006   5.140133   4.209024   6.175995   2.841488
    20  O    3.446757   5.753966   4.665430   6.740253   3.364180
    21  O    3.640378   5.589522   4.404905   6.506519   3.240031
    22  H    4.256942   6.358272   5.237550   7.291282   4.053643
                   16         17         18         19         20
    16  H    0.000000
    17  H    2.481145   0.000000
    18  O    4.469299   2.589195   0.000000
    19  H    4.769376   2.333975   1.794814   0.000000
    20  O    5.036074   2.578339   2.760950   0.977608   0.000000
    21  O    4.622151   2.328728   3.226230   1.874775   1.420559
    22  H    5.490524   3.227764   3.661228   2.333636   1.876828
                   21         22
    21  O    0.000000
    22  H    0.962567   0.000000
 Stoichiometry    C10H9O3(2)
 Framework group  C1[X(C10H9O3)]
 Deg. of freedom    60
 Full point group                 C1      NOp   1
 Largest Abelian subgroup         C1      NOp   1
 Largest concise Abelian subgroup C1      NOp   1
                         Standard orientation:                         
 ---------------------------------------------------------------------
 Center     Atomic      Atomic             Coordinates (Angstroms)
 Number     Number       Type             X           Y           Z
 ---------------------------------------------------------------------
      1          6           0        2.850700   -1.681780    0.076211
      2          6           0        3.626189   -0.516730    0.097511
      3          6           0        3.020199    0.718570    0.060231
      4          6           0        1.618449    0.822469   -0.000249
      5          6           0        1.473070   -1.600801    0.017001
      6          6           0        0.845299   -0.356861   -0.021229
      7          1           0        0.859380   -2.489531   -0.001069
      8          1           0        3.333000   -2.648540    0.102301
      9          1           0        4.704269   -0.587830    0.140151
     10          1           0        3.612549    1.623220    0.074751
     11          6           0       -0.623861   -0.264591   -0.088209
     12          6           0        0.967009    2.089069   -0.041579
     13          6           0       -0.418001    2.186709   -0.100479
     14          1           0        1.572788    2.984709   -0.024269
     15          6           0       -1.207781    1.058579   -0.123189
     16          1           0       -0.880502    3.163369   -0.123879
     17          1           0       -2.287441    1.119888   -0.151979
     18          8           0       -1.325521   -1.283711   -0.115269
     19          1           0       -3.078191   -1.058442   -0.429529
     20          8           0       -4.005041   -0.765042   -0.532399
     21          8           0       -4.179421    0.017368    0.640381
     22          1           0       -4.663621   -0.583552    1.215691
 ---------------------------------------------------------------------
 Rotational constants (GHZ):           1.7114128           0.4466711           0.3611546
 Standard basis: 6-31G(d,p) (6D, 7F)
 There are   240 symmetry adapted cartesian basis functions of A   symmetry.
 There are   240 symmetry adapted basis functions of A   symmetry.
   240 basis functions,   427 primitive gaussians,   240 cartesian basis functions
    47 alpha electrons       46 beta electrons
       nuclear repulsion energy       726.9893101337 Hartrees.
 NAtoms=   22 NActive=   22 NUniq=   22 SFac= 1.00D+00 NAtFMM=   60 NAOKFM=F Big=F
 Integral buffers will be    131072 words long.
 Raffenetti 2 integral format.
 Two-electron integral symmetry is turned on.
 One-electron integrals computed using PRISM.
 NBasis=   240 RedAO= T EigKep=  2.98D-04  NBF=   240
 NBsUse=   240 1.00D-06 EigRej= -1.00D+00 NBFU=   240
 ExpMin= 1.61D-01 ExpMax= 5.48D+03 ExpMxC= 8.25D+02 IAcc=1 IRadAn=         1 AccDes= 0.00D+00
 Harris functional with IExCor= 1009 and IRadAn=       1 diagonalized for initial guess.
 HarFok:  IExCor= 1009 AccDes= 0.00D+00 IRadAn=         1 IDoV= 1 UseB2=F ITyADJ=14
 ICtDFT=  3500011 ScaDFX=  1.000000  1.000000  1.000000  1.000000
 FoFCou: FMM=F IPFlag=           0 FMFlag=      100000 FMFlg1=           0
         NFxFlg=           0 DoJE=T BraDBF=F KetDBF=T FulRan=T
         wScrn=  0.000000 ICntrl=       500 IOpCl=  0 I1Cent=   200000004 NGrid=           0
         NMat0=    1 NMatS0=      1 NMatT0=    0 NMatD0=    1 NMtDS0=    0 NMtDT0=    0
 Petite list used in FoFCou.
 Initial guess <Sx>= 0.0000 <Sy>= 0.0000 <Sz>= 0.5000 <S**2>= 0.7500 S= 0.5000
 Requested convergence on RMS density matrix=1.00D-08 within 128 cycles.
 Requested convergence on MAX density matrix=1.00D-06.
 Requested convergence on             energy=1.00D-06.
 No special actions if energy rises.
 SCF Done:  E(UM062X) =  -611.784880068     A.U. after   19 cycles
            NFock= 19  Conv=0.42D-08     -V/T= 2.0080
 <Sx>= 0.0000 <Sy>= 0.0000 <Sz>= 0.5000 <S**2>= 0.7859 S= 0.5178
 <L.S>= 0.000000000000E+00
 Annihilation of the first spin contaminant:
 S**2 before annihilation     0.7859,   after     0.7509
 DoSCS=F DFT=T ScalE2(SS,OS)=  1.000000  1.000000
 Range of M.O.s used for correlation:     1   240
 NBasis=   240 NAE=    47 NBE=    46 NFC=     0 NFV=     0
 NROrb=    240 NOA=    47 NOB=    46 NVA=   193 NVB=   194

 **** Warning!!: The largest alpha MO coefficient is  0.12317237D+02


 **** Warning!!: The largest beta MO coefficient is  0.12183504D+02

 Symmetrizing basis deriv contribution to polar:
 IMax=3 JMax=2 DiffMx= 0.00D+00
 G2DrvN: will do    23 centers at a time, making    1 passes.
 Calling FoFCou, ICntrl=  3107 FMM=F I1Cent=   0 AccDes= 0.00D+00.
 End of G2Drv F.D. properties file   721 does not exist.
 End of G2Drv F.D. properties file   722 does not exist.
 End of G2Drv F.D. properties file   788 does not exist.
          IDoAtm=1111111111111111111111
          Differentiating once with respect to nuclear coordinates.
 Keep R1 and R2 ints in memory in canonical form, NReq=857760080.
          There are    69 degrees of freedom in the 1st order CPHF.  IDoFFX=6 NUNeed=     0.
     63 vectors produced by pass  0 Test12= 2.61D-14 1.45D-09 XBig12= 3.10D-01 1.84D-01.
 AX will form    63 AO Fock derivatives at one time.
     63 vectors produced by pass  1 Test12= 2.61D-14 1.45D-09 XBig12= 3.68D-02 4.25D-02.
     63 vectors produced by pass  2 Test12= 2.61D-14 1.45D-09 XBig12= 1.34D-03 8.45D-03.
     63 vectors produced by pass  3 Test12= 2.61D-14 1.45D-09 XBig12= 1.39D-05 7.36D-04.
     63 vectors produced by pass  4 Test12= 2.61D-14 1.45D-09 XBig12= 1.04D-07 4.25D-05.
     63 vectors produced by pass  5 Test12= 2.61D-14 1.45D-09 XBig12= 8.34D-10 3.65D-06.
     63 vectors produced by pass  6 Test12= 2.61D-14 1.45D-09 XBig12= 5.29D-12 2.35D-07.
     32 vectors produced by pass  7 Test12= 2.61D-14 1.45D-09 XBig12= 2.54D-14 1.35D-08.
 InvSVY:  IOpt=1 It=  1 EMax= 8.88D-16
 Solved reduced A of dimension   473 with    69 vectors.
 End of Minotr F.D. properties file   721 does not exist.
 End of Minotr F.D. properties file   722 does not exist.
 End of Minotr F.D. properties file   788 does not exist.

 **********************************************************************

            Population analysis using the SCF density.

 **********************************************************************

 Orbital symmetries:
 Alpha Orbitals:
       Occupied  (A) (A) (A) (A) (A) (A) (A) (A) (A) (A) (A) (A)
                 (A) (A) (A) (A) (A) (A) (A) (A) (A) (A) (A) (A)
                 (A) (A) (A) (A) (A) (A) (A) (A) (A) (A) (A) (A)
                 (A) (A) (A) (A) (A) (A) (A) (A) (A) (A) (A)
       Virtual   (A) (A) (A) (A) (A) (A) (A) (A) (A) (A) (A) (A)
                 (A) (A) (A) (A) (A) (A) (A) (A) (A) (A) (A) (A)
                 (A) (A) (A) (A) (A) (A) (A) (A) (A) (A) (A) (A)
                 (A) (A) (A) (A) (A) (A) (A) (A) (A) (A) (A) (A)
                 (A) (A) (A) (A) (A) (A) (A) (A) (A) (A) (A) (A)
                 (A) (A) (A) (A) (A) (A) (A) (A) (A) (A) (A) (A)
                 (A) (A) (A) (A) (A) (A) (A) (A) (A) (A) (A) (A)
                 (A) (A) (A) (A) (A) (A) (A) (A) (A) (A) (A) (A)
                 (A) (A) (A) (A) (A) (A) (A) (A) (A) (A) (A) (A)
                 (A) (A) (A) (A) (A) (A) (A) (A) (A) (A) (A) (A)
                 (A) (A) (A) (A) (A) (A) (A) (A) (A) (A) (A) (A)
                 (A) (A) (A) (A) (A) (A) (A) (A) (A) (A) (A) (A)
                 (A) (A) (A) (A) (A) (A) (A) (A) (A) (A) (A) (A)
                 (A) (A) (A) (A) (A) (A) (A) (A) (A) (A) (A) (A)
                 (A) (A) (A) (A) (A) (A) (A) (A) (A) (A) (A) (A)
                 (A) (A) (A) (A) (A) (A) (A) (A) (A) (A) (A) (A)
                 (A)
 Beta  Orbitals:
       Occupied  (A) (A) (A) (A) (A) (A) (A) (A) (A) (A) (A) (A)
                 (A) (A) (A) (A) (A) (A) (A) (A) (A) (A) (A) (A)
                 (A) (A) (A) (A) (A) (A) (A) (A) (A) (A) (A) (A)
                 (A) (A) (A) (A) (A) (A) (A) (A) (A) (A)
       Virtual   (A) (A) (A) (A) (A) (A) (A) (A) (A) (A) (A) (A)
                 (A) (A) (A) (A) (A) (A) (A) (A) (A) (A) (A) (A)
                 (A) (A) (A) (A) (A) (A) (A) (A) (A) (A) (A) (A)
                 (A) (A) (A) (A) (A) (A) (A) (A) (A) (A) (A) (A)
                 (A) (A) (A) (A) (A) (A) (A) (A) (A) (A) (A) (A)
                 (A) (A) (A) (A) (A) (A) (A) (A) (A) (A) (A) (A)
                 (A) (A) (A) (A) (A) (A) (A) (A) (A) (A) (A) (A)
                 (A) (A) (A) (A) (A) (A) (A) (A) (A) (A) (A) (A)
                 (A) (A) (A) (A) (A) (A) (A) (A) (A) (A) (A) (A)
                 (A) (A) (A) (A) (A) (A) (A) (A) (A) (A) (A) (A)
                 (A) (A) (A) (A) (A) (A) (A) (A) (A) (A) (A) (A)
                 (A) (A) (A) (A) (A) (A) (A) (A) (A) (A) (A) (A)
                 (A) (A) (A) (A) (A) (A) (A) (A) (A) (A) (A) (A)
                 (A) (A) (A) (A) (A) (A) (A) (A) (A) (A) (A) (A)
                 (A) (A) (A) (A) (A) (A) (A) (A) (A) (A) (A) (A)
                 (A) (A) (A) (A) (A) (A) (A) (A) (A) (A) (A) (A)
                 (A) (A)
 The electronic state is 2-A.
 Alpha  occ. eigenvalues --  -19.66864 -19.65211 -19.64311 -10.63544 -10.59125
 Alpha  occ. eigenvalues --  -10.57931 -10.57402 -10.57361 -10.57287 -10.57183
 Alpha  occ. eigenvalues --  -10.57067 -10.56995 -10.56595  -1.22155  -1.17004
 Alpha  occ. eigenvalues --   -0.99660  -0.96968  -0.94261  -0.87716  -0.86032
 Alpha  occ. eigenvalues --   -0.81838  -0.72732  -0.71666  -0.68000  -0.61286
 Alpha  occ. eigenvalues --   -0.60157  -0.59166  -0.58070  -0.55199  -0.53443
 Alpha  occ. eigenvalues --   -0.52356  -0.51289  -0.50901  -0.50521  -0.48213
 Alpha  occ. eigenvalues --   -0.47211  -0.46217  -0.45651  -0.42599  -0.41363
 Alpha  occ. eigenvalues --   -0.41035  -0.35680  -0.33812  -0.33522  -0.33000
 Alpha  occ. eigenvalues --   -0.32166  -0.25990
 Alpha virt. eigenvalues --   -0.01698   0.00690   0.06155   0.12622   0.12986
 Alpha virt. eigenvalues --    0.13465   0.14748   0.17124   0.17900   0.20315
 Alpha virt. eigenvalues --    0.21665   0.22685   0.24416   0.24834   0.26024
 Alpha virt. eigenvalues --    0.27994   0.29023   0.33274   0.34393   0.35014
 Alpha virt. eigenvalues --    0.35444   0.40059   0.40278   0.51241   0.51970
 Alpha virt. eigenvalues --    0.53575   0.54288   0.55212   0.57406   0.57551
 Alpha virt. eigenvalues --    0.58505   0.59875   0.61945   0.62295   0.63944
 Alpha virt. eigenvalues --    0.64052   0.64260   0.64995   0.65395   0.65858
 Alpha virt. eigenvalues --    0.67620   0.70528   0.72022   0.72760   0.74460
 Alpha virt. eigenvalues --    0.79092   0.82174   0.82782   0.85277   0.85676
 Alpha virt. eigenvalues --    0.86420   0.86997   0.87643   0.87820   0.88602
 Alpha virt. eigenvalues --    0.90643   0.92124   0.93865   0.96059   0.96682
 Alpha virt. eigenvalues --    0.98203   0.98666   1.01959   1.03858   1.04900
 Alpha virt. eigenvalues --    1.06501   1.06916   1.07846   1.09907   1.10127
 Alpha virt. eigenvalues --    1.12421   1.15357   1.17571   1.21155   1.24496
 Alpha virt. eigenvalues --    1.25619   1.28217   1.28298   1.28887   1.32660
 Alpha virt. eigenvalues --    1.36392   1.36841   1.38917   1.39574   1.40157
 Alpha virt. eigenvalues --    1.41953   1.43438   1.44336   1.45051   1.45677
 Alpha virt. eigenvalues --    1.47672   1.48628   1.50400   1.51672   1.53110
 Alpha virt. eigenvalues --    1.61394   1.64179   1.68950   1.74380   1.75457
 Alpha virt. eigenvalues --    1.78509   1.79461   1.81670   1.85026   1.86652
 Alpha virt. eigenvalues --    1.88613   1.88948   1.89733   1.91980   1.93054
 Alpha virt. eigenvalues --    1.94514   1.96075   1.98493   2.00511   2.00798
 Alpha virt. eigenvalues --    2.03468   2.04275   2.04356   2.05441   2.10076
 Alpha virt. eigenvalues --    2.11764   2.13128   2.19806   2.20710   2.24008
 Alpha virt. eigenvalues --    2.24131   2.27990   2.28375   2.29327   2.31345
 Alpha virt. eigenvalues --    2.34662   2.38307   2.39499   2.40382   2.40598
 Alpha virt. eigenvalues --    2.43939   2.44203   2.44787   2.45868   2.47962
 Alpha virt. eigenvalues --    2.49662   2.51984   2.55180   2.57168   2.57846
 Alpha virt. eigenvalues --    2.58696   2.61263   2.61871   2.62709   2.63363
 Alpha virt. eigenvalues --    2.65363   2.66036   2.68064   2.72196   2.74293
 Alpha virt. eigenvalues --    2.76104   2.77500   2.79353   2.81752   2.85346
 Alpha virt. eigenvalues --    2.86507   2.94168   2.98507   2.99464   3.03470
 Alpha virt. eigenvalues --    3.07715   3.09864   3.15070   3.18239   3.22785
 Alpha virt. eigenvalues --    3.24070   3.25609   3.32781   3.38752   3.40750
 Alpha virt. eigenvalues --    3.45430   3.47995   3.55771   3.74984   3.76700
 Alpha virt. eigenvalues --    3.86952   3.90617   4.04066   4.11579   4.14242
 Alpha virt. eigenvalues --    4.16170   4.18367   4.31274   4.41448   4.45312
 Alpha virt. eigenvalues --    4.59447   4.68269   4.93418
  Beta  occ. eigenvalues --  -19.66864 -19.65214 -19.63750 -10.63601 -10.58818
  Beta  occ. eigenvalues --  -10.58010 -10.57516 -10.57293 -10.57116 -10.57079
  Beta  occ. eigenvalues --  -10.57042 -10.56948 -10.56623  -1.22152  -1.15568
  Beta  occ. eigenvalues --   -0.99330  -0.96972  -0.93757  -0.87335  -0.85833
  Beta  occ. eigenvalues --   -0.80787  -0.72532  -0.71355  -0.67638  -0.60878
  Beta  occ. eigenvalues --   -0.59832  -0.58949  -0.57873  -0.55026  -0.53185
  Beta  occ. eigenvalues --   -0.51990  -0.50537  -0.50278  -0.49152  -0.48006
  Beta  occ. eigenvalues --   -0.47144  -0.45873  -0.43500  -0.42295  -0.41217
  Beta  occ. eigenvalues --   -0.38374  -0.35493  -0.33512  -0.32563  -0.31726
  Beta  occ. eigenvalues --   -0.31440
  Beta virt. eigenvalues --   -0.10727  -0.00162   0.02106   0.08149   0.12784
  Beta virt. eigenvalues --    0.13347   0.14440   0.14910   0.17170   0.18024
  Beta virt. eigenvalues --    0.20401   0.21798   0.22816   0.25069   0.25202
  Beta virt. eigenvalues --    0.26175   0.28276   0.29507   0.33482   0.34627
  Beta virt. eigenvalues --    0.35351   0.35717   0.40331   0.40417   0.51488
  Beta virt. eigenvalues --    0.52448   0.54262   0.54877   0.55709   0.57766
  Beta virt. eigenvalues --    0.57904   0.58659   0.60789   0.62301   0.62999
  Beta virt. eigenvalues --    0.64321   0.64489   0.64491   0.65271   0.65652
  Beta virt. eigenvalues --    0.66466   0.68125   0.71005   0.72358   0.72970
  Beta virt. eigenvalues --    0.74764   0.79435   0.82477   0.83121   0.85323
  Beta virt. eigenvalues --    0.86383   0.86564   0.87190   0.87843   0.88200
  Beta virt. eigenvalues --    0.88865   0.90906   0.92255   0.94233   0.96566
  Beta virt. eigenvalues --    0.96933   0.98869   0.99181   1.02213   1.04079
  Beta virt. eigenvalues --    1.05149   1.06913   1.07180   1.08069   1.10205
  Beta virt. eigenvalues --    1.11793   1.12816   1.15690   1.17779   1.21373
  Beta virt. eigenvalues --    1.24793   1.26732   1.28536   1.28720   1.29098
  Beta virt. eigenvalues --    1.32902   1.36681   1.37710   1.39359   1.40092
  Beta virt. eigenvalues --    1.40784   1.42191   1.44415   1.44911   1.45505
  Beta virt. eigenvalues --    1.46489   1.48274   1.48831   1.50592   1.51870
  Beta virt. eigenvalues --    1.53196   1.61541   1.64363   1.69057   1.74628
  Beta virt. eigenvalues --    1.75888   1.79179   1.79873   1.82346   1.85539
  Beta virt. eigenvalues --    1.87986   1.89583   1.89615   1.90243   1.92362
  Beta virt. eigenvalues --    1.93504   1.94913   1.96695   1.99286   2.00991
  Beta virt. eigenvalues --    2.01456   2.03813   2.04786   2.05143   2.05893
  Beta virt. eigenvalues --    2.10785   2.11995   2.13140   2.20236   2.20951
  Beta virt. eigenvalues --    2.24174   2.24652   2.28749   2.29498   2.30211
  Beta virt. eigenvalues --    2.31762   2.35443   2.38903   2.39739   2.40832
  Beta virt. eigenvalues --    2.41080   2.44471   2.44690   2.44928   2.46155
  Beta virt. eigenvalues --    2.48390   2.50698   2.52445   2.55647   2.57648
  Beta virt. eigenvalues --    2.58315   2.59603   2.61543   2.62170   2.63388
  Beta virt. eigenvalues --    2.63991   2.65748   2.66403   2.68766   2.73012
  Beta virt. eigenvalues --    2.74888   2.76263   2.78103   2.79761   2.82246
  Beta virt. eigenvalues --    2.85445   2.86848   2.94201   2.99119   2.99739
  Beta virt. eigenvalues --    3.03901   3.08527   3.10363   3.15834   3.18618
  Beta virt. eigenvalues --    3.22925   3.24387   3.26335   3.33146   3.40178
  Beta virt. eigenvalues --    3.41685   3.45586   3.48218   3.55822   3.75135
  Beta virt. eigenvalues --    3.77780   3.87441   3.90667   4.04763   4.12400
  Beta virt. eigenvalues --    4.14791   4.16695   4.18770   4.32823   4.41902
  Beta virt. eigenvalues --    4.46022   4.60342   4.68644   4.93981
          Condensed to atoms (all electrons):
               1          2          3          4          5          6
     1  C    4.867939   0.524483  -0.033837  -0.036165   0.512454  -0.027006
     2  C    0.524483   4.838264   0.534476  -0.023889  -0.030650  -0.039433
     3  C   -0.033837   0.534476   4.957887   0.497645  -0.060456  -0.031885
     4  C   -0.036165  -0.023889   0.497645   4.727271  -0.056457   0.526288
     5  C    0.512454  -0.030650  -0.060456  -0.056457   4.958246   0.485689
     6  C   -0.027006  -0.039433  -0.031885   0.526288   0.485689   5.011578
     7  H   -0.036656   0.003656   0.000488   0.004338   0.375937  -0.035437
     8  H    0.378081  -0.036580   0.003649   0.001118  -0.032109   0.002522
     9  H   -0.035551   0.376435  -0.031196   0.002616   0.003404   0.001040
    10  H    0.003956  -0.036036   0.375009  -0.039754   0.000576   0.003876
    11  C    0.006637  -0.000396   0.009341  -0.016852  -0.063675   0.345106
    12  C   -0.000413   0.007571  -0.078652   0.441675   0.013235  -0.042516
    13  C    0.000062  -0.000334   0.007801  -0.019576  -0.002104  -0.021682
    14  H    0.000013   0.000209  -0.005627  -0.037367  -0.000170   0.003693
    15  C   -0.000243   0.000030  -0.001048  -0.035045   0.013491  -0.091271
    16  H   -0.000000   0.000002  -0.000185   0.002404   0.000017   0.000687
    17  H    0.000001  -0.000000   0.000001   0.000286  -0.000091   0.004612
    18  O    0.000793  -0.000006  -0.000073   0.003992   0.001519  -0.090032
    19  H    0.000000   0.000000   0.000000  -0.000010  -0.000049   0.000817
    20  O    0.000000   0.000000  -0.000000  -0.000001   0.000002  -0.000019
    21  O   -0.000000   0.000000  -0.000000  -0.000001   0.000000   0.000027
    22  H    0.000000   0.000000   0.000000  -0.000000  -0.000000   0.000001
               7          8          9         10         11         12
     1  C   -0.036656   0.378081  -0.035551   0.003956   0.006637  -0.000413
     2  C    0.003656  -0.036580   0.376435  -0.036036  -0.000396   0.007571
     3  C    0.000488   0.003649  -0.031196   0.375009   0.009341  -0.078652
     4  C    0.004338   0.001118   0.002616  -0.039754  -0.016852   0.441675
     5  C    0.375937  -0.032109   0.003404   0.000576  -0.063675   0.013235
     6  C   -0.035437   0.002522   0.001040   0.003876   0.345106  -0.042516
     7  H    0.529016  -0.003938  -0.000149   0.000017  -0.008280  -0.000152
     8  H   -0.003938   0.556283  -0.004461  -0.000165  -0.000160   0.000012
     9  H   -0.000149  -0.004461   0.560109  -0.004637   0.000012  -0.000188
    10  H    0.000017  -0.000165  -0.004637   0.568175  -0.000145  -0.006290
    11  C   -0.008280  -0.000160   0.000012  -0.000145   4.568029  -0.048973
    12  C   -0.000152   0.000012  -0.000188  -0.006290  -0.048973   5.025465
    13  C   -0.000038  -0.000001   0.000003   0.000226  -0.007832   0.484935
    14  H    0.000002  -0.000000  -0.000010   0.004884   0.000554   0.374551
    15  C    0.000651   0.000003  -0.000000   0.000022   0.399153  -0.030085
    16  H    0.000000   0.000000  -0.000000  -0.000006   0.002175  -0.032620
    17  H   -0.000002  -0.000000   0.000000   0.000000  -0.025811   0.004076
    18  O    0.011598   0.000001   0.000000   0.000000   0.460671  -0.000030
    19  H   -0.000038  -0.000000   0.000000  -0.000000  -0.004623  -0.000006
    20  O    0.000002   0.000000   0.000000   0.000000   0.000120   0.000001
    21  O    0.000000  -0.000000   0.000000  -0.000000   0.000601  -0.000001
    22  H   -0.000000  -0.000000   0.000000   0.000000  -0.000002   0.000000
              13         14         15         16         17         18
     1  C    0.000062   0.000013  -0.000243  -0.000000   0.000001   0.000793
     2  C   -0.000334   0.000209   0.000030   0.000002  -0.000000  -0.000006
     3  C    0.007801  -0.005627  -0.001048  -0.000185   0.000001  -0.000073
     4  C   -0.019576  -0.037367  -0.035045   0.002404   0.000286   0.003992
     5  C   -0.002104  -0.000170   0.013491   0.000017  -0.000091   0.001519
     6  C   -0.021682   0.003693  -0.091271   0.000687   0.004612  -0.090032
     7  H   -0.000038   0.000002   0.000651   0.000000  -0.000002   0.011598
     8  H   -0.000001  -0.000000   0.000003   0.000000  -0.000000   0.000001
     9  H    0.000003  -0.000010  -0.000000  -0.000000   0.000000   0.000000
    10  H    0.000226   0.004884   0.000022  -0.000006   0.000000   0.000000
    11  C   -0.007832   0.000554   0.399153   0.002175  -0.025811   0.460671
    12  C    0.484935   0.374551  -0.030085  -0.032620   0.004076  -0.000030
    13  C    4.911631  -0.034363   0.463562   0.375692  -0.029603   0.006044
    14  H   -0.034363   0.553027   0.003829  -0.004035  -0.000134   0.000002
    15  C    0.463562   0.003829   5.143342  -0.025870   0.365957  -0.078060
    16  H    0.375692  -0.004035  -0.025870   0.539974  -0.004243  -0.000066
    17  H   -0.029603  -0.000134   0.365957  -0.004243   0.497661  -0.004810
    18  O    0.006044   0.000002  -0.078060  -0.000066  -0.004810   8.196367
    19  H    0.000118  -0.000000  -0.001398  -0.000004   0.001074   0.053088
    20  O    0.000153   0.000000   0.000776  -0.000000   0.004043  -0.020903
    21  O   -0.000034   0.000000  -0.003898   0.000002   0.006131   0.001031
    22  H    0.000005  -0.000000   0.000242  -0.000000  -0.000100   0.000069
              19         20         21         22
     1  C    0.000000   0.000000  -0.000000   0.000000
     2  C    0.000000   0.000000   0.000000   0.000000
     3  C    0.000000  -0.000000  -0.000000   0.000000
     4  C   -0.000010  -0.000001  -0.000001  -0.000000
     5  C   -0.000049   0.000002   0.000000  -0.000000
     6  C    0.000817  -0.000019   0.000027   0.000001
     7  H   -0.000038   0.000002   0.000000  -0.000000
     8  H   -0.000000   0.000000  -0.000000  -0.000000
     9  H    0.000000   0.000000   0.000000   0.000000
    10  H   -0.000000   0.000000  -0.000000   0.000000
    11  C   -0.004623   0.000120   0.000601  -0.000002
    12  C   -0.000006   0.000001  -0.000001   0.000000
    13  C    0.000118   0.000153  -0.000034   0.000005
    14  H   -0.000000   0.000000   0.000000  -0.000000
    15  C   -0.001398   0.000776  -0.003898   0.000242
    16  H   -0.000004  -0.000000   0.000002  -0.000000
    17  H    0.001074   0.004043   0.006131  -0.000100
    18  O    0.053088  -0.020903   0.001031   0.000069
    19  H    0.331987   0.260826  -0.027673  -0.000023
    20  O    0.260826   8.128031   0.057000  -0.026507
    21  O   -0.027673   0.057000   8.062788   0.281309
    22  H   -0.000023  -0.026507   0.281309   0.394762
          Atomic-Atomic Spin Densities.
               1          2          3          4          5          6
     1  C    0.107937  -0.010408  -0.004787   0.000194   0.015225  -0.004915
     2  C   -0.010408  -0.051198   0.008554   0.002245   0.000032   0.000793
     3  C   -0.004787   0.008554   0.105103  -0.002985  -0.000654   0.003055
     4  C    0.000194   0.002245  -0.002985  -0.108783   0.001430   0.002857
     5  C    0.015225   0.000032  -0.000654   0.001430  -0.039813  -0.016745
     6  C   -0.004915   0.000793   0.003055   0.002857  -0.016745   0.101340
     7  H   -0.000413  -0.000014   0.000005  -0.000079   0.000919   0.000184
     8  H    0.000139   0.000160   0.000007  -0.000008   0.000189   0.000035
     9  H   -0.000230   0.000301  -0.000156  -0.000046  -0.000025   0.000004
    10  H    0.000026   0.000179   0.000174   0.000381  -0.000008   0.000050
    11  C   -0.000240  -0.000006   0.000100   0.001488   0.000142   0.027381
    12  C    0.000153  -0.000090  -0.010985  -0.005423   0.000397  -0.010130
    13  C    0.000002   0.000004  -0.000056  -0.000136   0.000077  -0.001506
    14  H   -0.000001  -0.000007  -0.000456   0.000385   0.000008   0.000123
    15  C   -0.000026   0.000006   0.000134  -0.000540  -0.000496   0.005376
    16  H   -0.000000   0.000000  -0.000002  -0.000065   0.000000   0.000011
    17  H   -0.000000   0.000000   0.000000  -0.000023   0.000000  -0.000011
    18  O    0.000009  -0.000001  -0.000004  -0.000066   0.000901  -0.004048
    19  H    0.000000  -0.000000  -0.000000   0.000001   0.000003  -0.000043
    20  O   -0.000000   0.000000   0.000000  -0.000000  -0.000000   0.000002
    21  O    0.000000  -0.000000  -0.000000   0.000000   0.000000  -0.000000
    22  H    0.000000  -0.000000  -0.000000   0.000000   0.000000  -0.000000
               7          8          9         10         11         12
     1  C   -0.000413   0.000139  -0.000230   0.000026  -0.000240   0.000153
     2  C   -0.000014   0.000160   0.000301   0.000179  -0.000006  -0.000090
     3  C    0.000005   0.000007  -0.000156   0.000174   0.000100  -0.010985
     4  C   -0.000079  -0.000008  -0.000046   0.000381   0.001488  -0.005423
     5  C    0.000919   0.000189  -0.000025  -0.000008   0.000142   0.000397
     6  C    0.000184   0.000035   0.000004   0.000050   0.027381  -0.010130
     7  H    0.000592  -0.000017  -0.000001  -0.000000   0.000032  -0.000003
     8  H   -0.000017  -0.005388   0.000008   0.000002   0.000001   0.000000
     9  H   -0.000001   0.000008   0.001794  -0.000021   0.000000  -0.000003
    10  H   -0.000000   0.000002  -0.000021  -0.004839   0.000001  -0.000295
    11  C    0.000032   0.000001   0.000000   0.000001  -0.066611  -0.003859
    12  C   -0.000003   0.000000  -0.000003  -0.000295  -0.003859   0.508484
    13  C    0.000002   0.000000   0.000000  -0.000010   0.000071   0.018380
    14  H   -0.000000  -0.000000  -0.000000  -0.000086  -0.000052   0.000941
    15  C   -0.000011  -0.000000  -0.000000  -0.000000   0.038698  -0.021067
    16  H   -0.000000   0.000000  -0.000000  -0.000000  -0.000050  -0.001136
    17  H    0.000000   0.000000  -0.000000  -0.000000   0.000335   0.000049
    18  O   -0.000591  -0.000000  -0.000000  -0.000000  -0.052318   0.000130
    19  H    0.000002   0.000000  -0.000000   0.000000   0.000255   0.000000
    20  O   -0.000000  -0.000000  -0.000000  -0.000000   0.000011  -0.000000
    21  O    0.000000   0.000000  -0.000000   0.000000  -0.000026   0.000000
    22  H    0.000000   0.000000  -0.000000   0.000000  -0.000002  -0.000000
              13         14         15         16         17         18
     1  C    0.000002  -0.000001  -0.000026  -0.000000  -0.000000   0.000009
     2  C    0.000004  -0.000007   0.000006   0.000000   0.000000  -0.000001
     3  C   -0.000056  -0.000456   0.000134  -0.000002   0.000000  -0.000004
     4  C   -0.000136   0.000385  -0.000540  -0.000065  -0.000023  -0.000066
     5  C    0.000077   0.000008  -0.000496   0.000000   0.000000   0.000901
     6  C   -0.001506   0.000123   0.005376   0.000011  -0.000011  -0.004048
     7  H    0.000002  -0.000000  -0.000011  -0.000000   0.000000  -0.000591
     8  H    0.000000  -0.000000  -0.000000   0.000000   0.000000  -0.000000
     9  H    0.000000  -0.000000  -0.000000  -0.000000  -0.000000  -0.000000
    10  H   -0.000010  -0.000086  -0.000000  -0.000000  -0.000000  -0.000000
    11  C    0.000071  -0.000052   0.038698  -0.000050   0.000335  -0.052318
    12  C    0.018380   0.000941  -0.021067  -0.001136   0.000049   0.000130
    13  C   -0.182470   0.000069  -0.020295   0.001521   0.000406   0.000022
    14  H    0.000069  -0.021919   0.000116  -0.000046   0.000007  -0.000000
    15  C   -0.020295   0.000116   0.421607  -0.001059  -0.001297  -0.011261
    16  H    0.001521  -0.000046  -0.001059   0.005556  -0.000009   0.000001
    17  H    0.000406   0.000007  -0.001297  -0.000009  -0.018925   0.000032
    18  O    0.000022  -0.000000  -0.011261   0.000001   0.000032   0.361864
    19  H   -0.000011   0.000000   0.000018   0.000000  -0.000094  -0.003004
    20  O    0.000001  -0.000000  -0.000011  -0.000000   0.000095   0.000552
    21  O   -0.000000  -0.000000  -0.000096  -0.000000   0.000372   0.000011
    22  H   -0.000000   0.000000   0.000005   0.000000  -0.000018  -0.000003
              19         20         21         22
     1  C    0.000000  -0.000000   0.000000   0.000000
     2  C   -0.000000   0.000000  -0.000000  -0.000000
     3  C   -0.000000   0.000000  -0.000000  -0.000000
     4  C    0.000001  -0.000000   0.000000   0.000000
     5  C    0.000003  -0.000000   0.000000   0.000000
     6  C   -0.000043   0.000002  -0.000000  -0.000000
     7  H    0.000002  -0.000000   0.000000   0.000000
     8  H    0.000000  -0.000000   0.000000   0.000000
     9  H   -0.000000  -0.000000  -0.000000  -0.000000
    10  H    0.000000  -0.000000   0.000000   0.000000
    11  C    0.000255   0.000011  -0.000026  -0.000002
    12  C    0.000000  -0.000000   0.000000  -0.000000
    13  C   -0.000011   0.000001  -0.000000  -0.000000
    14  H    0.000000  -0.000000  -0.000000   0.000000
    15  C    0.000018  -0.000011  -0.000096   0.000005
    16  H    0.000000  -0.000000  -0.000000   0.000000
    17  H   -0.000094   0.000095   0.000372  -0.000018
    18  O   -0.003004   0.000552   0.000011  -0.000003
    19  H   -0.001249   0.001548  -0.000069  -0.000002
    20  O    0.001548  -0.002830   0.000011  -0.000005
    21  O   -0.000069   0.000011  -0.000022   0.000052
    22  H   -0.000002  -0.000005   0.000052  -0.000107
 Mulliken charges and spin densities:
               1          2
     1  C   -0.124549   0.102665
     2  C   -0.117800  -0.049451
     3  C   -0.143337   0.097049
     4  C    0.057485  -0.109173
     5  C   -0.118811  -0.038418
     6  C   -0.006656   0.103815
     7  H    0.158985   0.000607
     8  H    0.135745  -0.004872
     9  H    0.132574   0.001625
    10  H    0.130291  -0.004445
    11  C    0.384350  -0.054648
    12  C   -0.111597   0.475546
    13  C   -0.134665  -0.183930
    14  H    0.140941  -0.020917
    15  C   -0.124139   0.409800
    16  H    0.146078   0.004721
    17  H    0.180952  -0.019082
    18  O   -0.541195   0.292226
    19  H    0.385912  -0.002645
    20  O   -0.403525  -0.000627
    21  O   -0.377284   0.000232
    22  H    0.350244  -0.000081
 Sum of Mulliken charges =  -0.00000   1.00000
 Mulliken charges and spin densities with hydrogens summed into heavy atoms:
               1          2
     1  C    0.011196   0.097793
     2  C    0.014773  -0.047826
     3  C   -0.013046   0.092604
     4  C    0.057485  -0.109173
     5  C    0.040174  -0.037811
     6  C   -0.006656   0.103815
    11  C    0.384350  -0.054648
    12  C    0.029344   0.454629
    13  C    0.011413  -0.179208
    15  C    0.056813   0.390719
    18  O   -0.541195   0.292226
    20  O   -0.017613  -0.003272
    21  O   -0.027040   0.000152
 APT charges:
               1
     1  C   -0.458969
     2  C   -0.490967
     3  C   -0.475143
     4  C   -0.373822
     5  C   -0.467093
     6  C   -0.451128
     7  H    0.409382
     8  H    0.757626
     9  H    0.891501
    10  H    0.663384
    11  C   -0.210541
    12  C   -0.438805
    13  C   -0.527134
    14  H    0.672626
    15  C   -0.507642
    16  H    0.671766
    17  H    0.535518
    18  O   -0.188964
    19  H   -0.093973
    20  O    0.152556
    21  O   -1.039604
    22  H    0.969426
 Sum of APT charges =  -0.00000
 APT charges with hydrogens summed into heavy atoms:
               1
     1  C    0.298657
     2  C    0.400534
     3  C    0.188241
     4  C   -0.373822
     5  C   -0.057711
     6  C   -0.451128
    11  C   -0.210541
    12  C    0.233821
    13  C    0.144632
    15  C    0.027876
    18  O   -0.188964
    20  O    0.058583
    21  O   -0.070178
 Electronic spatial extent (au):  <R**2>=           2906.4289
 Charge=             -0.0000 electrons
 Dipole moment (field-independent basis, Debye):
    X=              4.5338    Y=              1.4596    Z=              1.3560  Tot=              4.9522
 Quadrupole moment (field-independent basis, Debye-Ang):
   XX=            -73.1900   YY=            -64.9917   ZZ=            -75.9377
   XY=              0.3169   XZ=             -6.9632   YZ=             -1.9343
 Traceless Quadrupole moment (field-independent basis, Debye-Ang):
   XX=             -1.8168   YY=              6.3815   ZZ=             -4.5646
   XY=              0.3169   XZ=             -6.9632   YZ=             -1.9343
 Octapole moment (field-independent basis, Debye-Ang**2):
  XXX=             26.0665  YYY=              3.9492  ZZZ=              4.1402  XYY=             -0.3659
  XXY=            -15.7403  XXZ=             40.4321  XZZ=            -28.8353  YZZ=             -6.3090
  YYZ=              1.0087  XYZ=              8.1395
 Hexadecapole moment (field-independent basis, Debye-Ang**3):
 XXXX=          -2608.0816 YYYY=           -731.3584 ZZZZ=            -99.3324 XXXY=             67.4678
 XXXZ=           -190.8863 YYYX=              3.5252 YYYZ=             -1.2943 ZZZX=            -24.3704
 ZZZY=              1.1810 XXYY=           -540.7352 XXZZ=           -459.5857 YYZZ=           -164.5922
 XXYZ=            -40.8507 YYXZ=             -4.3739 ZZXY=             19.0079
 N-N= 7.269893101337D+02 E-N=-2.881148998524D+03  KE= 6.069197411783D+02
  Exact polarizability:   0.000   0.000   0.000   0.000   0.000   0.000
 Approx polarizability: 199.347  -0.429 184.409   3.911   1.745  63.219
                          Isotropic Fermi Contact Couplings
        Atom                 a.u.       MegaHertz       Gauss      10(-4) cm-1
     1  C(13)              0.01714      19.27037       6.87615       6.42791
     2  C(13)             -0.01182     -13.29069      -4.74245      -4.43330
     3  C(13)              0.01766      19.84904       7.08263       6.62093
     4  C(13)             -0.02788     -31.34584     -11.18498     -10.45585
     5  C(13)             -0.01046     -11.76319      -4.19740      -3.92378
     6  C(13)              0.01477      16.60780       5.92608       5.53977
     7  H(1)               0.00037       1.65266       0.58971       0.55127
     8  H(1)              -0.00157      -7.01352      -2.50260      -2.33946
     9  H(1)               0.00055       2.45836       0.87720       0.82002
    10  H(1)              -0.00150      -6.72110      -2.39826      -2.24192
    11  C(13)             -0.02567     -28.85920     -10.29768      -9.62639
    12  C(13)              0.08406      94.50481      33.72167      31.52341
    13  C(13)             -0.04323     -48.59996     -17.34167     -16.21120
    14  H(1)              -0.00713     -31.85881     -11.36802     -10.62696
    15  C(13)              0.06767      76.07921      27.14695      25.37729
    16  H(1)               0.00163       7.29939       2.60461       2.43482
    17  H(1)              -0.00664     -29.70004     -10.59771      -9.90687
    18  O(17)              0.06773     -41.05656     -14.65000     -13.69499
    19  H(1)               0.00016       0.69315       0.24733       0.23121
    20  O(17)             -0.00136       0.82448       0.29419       0.27502
    21  O(17)             -0.00058       0.35319       0.12603       0.11781
    22  H(1)              -0.00004      -0.15876      -0.05665      -0.05296
 --------------------------------------------------------
       Center         ----  Spin Dipole Couplings  ----
                      3XX-RR        3YY-RR        3ZZ-RR
 --------------------------------------------------------
     1   Atom       -0.045978     -0.046040      0.092018
     2   Atom        0.017821      0.020428     -0.038249
     3   Atom       -0.043730     -0.044853      0.088582
     4   Atom        0.033528      0.034226     -0.067753
     5   Atom        0.017808      0.010166     -0.027974
     6   Atom       -0.040419     -0.043377      0.083797
     7   Atom        0.004373     -0.000339     -0.004034
     8   Atom       -0.002586      0.004059     -0.001473
     9   Atom       -0.000470      0.002347     -0.001876
    10   Atom        0.001843      0.001446     -0.003289
    11   Atom        0.007130      0.026409     -0.033539
    12   Atom       -0.221464     -0.219157      0.440621
    13   Atom        0.066479      0.055893     -0.122372
    14   Atom       -0.010126      0.014279     -0.004152
    15   Atom       -0.179369     -0.187920      0.367289
    16   Atom        0.007863     -0.001770     -0.006093
    17   Atom        0.029052     -0.023757     -0.005295
    18   Atom       -0.521804     -0.541255      1.063060
    19   Atom        0.011169     -0.004841     -0.006328
    20   Atom        0.000911      0.000091     -0.001002
    21   Atom        0.003675     -0.001605     -0.002070
    22   Atom        0.002404     -0.001220     -0.001184
 --------------------------------------------------------
                        XY            XZ            YZ
 --------------------------------------------------------
     1   Atom       -0.003075     -0.005848      0.000987
     2   Atom       -0.001387      0.002247     -0.000631
     3   Atom       -0.001829     -0.005197      0.001326
     4   Atom       -0.003726      0.004502     -0.001149
     5   Atom       -0.003119      0.002034     -0.000686
     6   Atom       -0.002121     -0.003622      0.001200
     7   Atom       -0.004278      0.000436     -0.000241
     8   Atom       -0.007462      0.000014     -0.000359
     9   Atom       -0.001089      0.000081     -0.000087
    10   Atom        0.005115      0.000176      0.000162
    11   Atom        0.013997      0.000277      0.000605
    12   Atom        0.006865     -0.029572      0.007284
    13   Atom        0.006780      0.007736     -0.001069
    14   Atom        0.031756     -0.000579      0.001236
    15   Atom       -0.003421     -0.018770      0.002295
    16   Atom        0.002426      0.000549      0.000072
    17   Atom       -0.008263      0.001360     -0.000178
    18   Atom       -0.012343     -0.101508      0.014322
    19   Atom        0.000888      0.002521      0.000087
    20   Atom        0.001638     -0.000231      0.000360
    21   Atom       -0.000035     -0.000804      0.000519
    22   Atom        0.000420     -0.001342     -0.000100
 --------------------------------------------------------


 ---------------------------------------------------------------------------------
              Anisotropic Spin Dipole Couplings in Principal Axis System
 ---------------------------------------------------------------------------------

       Atom             a.u.   MegaHertz   Gauss  10(-4) cm-1        Axes

              Baa    -0.0492    -6.598    -2.354    -2.201  0.7169  0.6967  0.0248
     1 C(13)  Bbb    -0.0431    -5.784    -2.064    -1.929 -0.6959  0.7173 -0.0354
              Bcc     0.0923    12.382     4.418     4.130 -0.0424  0.0081  0.9991
 
              Baa    -0.0383    -5.145    -1.836    -1.716 -0.0397  0.0098  0.9992
     2 C(13)  Bbb     0.0173     2.319     0.827     0.773  0.9122  0.4084  0.0323
              Bcc     0.0211     2.827     1.009     0.943 -0.4077  0.9128 -0.0252
 
              Baa    -0.0462    -6.204    -2.214    -2.070  0.6104  0.7919  0.0157
     3 C(13)  Bbb    -0.0426    -5.712    -2.038    -1.905  0.7911 -0.6106  0.0375
              Bcc     0.0888    11.916     4.252     3.975 -0.0393  0.0105  0.9992
 
              Baa    -0.0680    -9.120    -3.254    -3.042 -0.0440  0.0096  0.9990
     4 C(13)  Bbb     0.0302     4.053     1.446     1.352  0.7300  0.6829  0.0255
              Bcc     0.0378     5.067     1.808     1.690 -0.6820  0.7304 -0.0370
 
              Baa    -0.0281    -3.767    -1.344    -1.257 -0.0433  0.0144  0.9990
     5 C(13)  Bbb     0.0091     1.215     0.434     0.405  0.3354  0.9421  0.0010
              Bcc     0.0190     2.552     0.911     0.851  0.9411 -0.3351  0.0456
 
              Baa    -0.0445    -5.970    -2.130    -1.991  0.4657  0.8849  0.0049
     6 C(13)  Bbb    -0.0394    -5.291    -1.888    -1.765  0.8844 -0.4656  0.0305
              Bcc     0.0839    11.261     4.018     3.756 -0.0293  0.0099  0.9995
 
              Baa    -0.0041    -2.165    -0.772    -0.722 -0.0452  0.0128  0.9989
     7 H(1)   Bbb    -0.0029    -1.530    -0.546    -0.510  0.5082  0.8612  0.0119
              Bcc     0.0069     3.694     1.318     1.232  0.8601 -0.5081  0.0454
 
              Baa    -0.0074    -3.969    -1.416    -1.324  0.8380  0.5449  0.0308
     8 H(1)   Bbb    -0.0015    -0.788    -0.281    -0.263 -0.0420  0.0082  0.9991
              Bcc     0.0089     4.756     1.697     1.587 -0.5441  0.8385 -0.0297
 
              Baa    -0.0019    -1.004    -0.358    -0.335 -0.0521  0.0071  0.9986
     9 H(1)   Bbb    -0.0008    -0.448    -0.160    -0.149  0.9449  0.3241  0.0470
              Bcc     0.0027     1.452     0.518     0.484 -0.3233  0.9460 -0.0236
 
              Baa    -0.0035    -1.854    -0.661    -0.618 -0.6935  0.7198  0.0316
    10 H(1)   Bbb    -0.0033    -1.758    -0.627    -0.586  0.0048 -0.0392  0.9992
              Bcc     0.0068     3.612     1.289     1.205  0.7205  0.6931  0.0238
 
              Baa    -0.0335    -4.502    -1.606    -1.502 -0.0036 -0.0092  1.0000
    11 C(13)  Bbb    -0.0002    -0.030    -0.011    -0.010  0.8852 -0.4652 -0.0011
              Bcc     0.0338     4.532     1.617     1.512  0.4652  0.8852  0.0099
 
              Baa    -0.2284   -30.650   -10.937   -10.224  0.7863 -0.6164  0.0415
    12 C(13)  Bbb    -0.2136   -28.664   -10.228    -9.561  0.6162  0.7874  0.0191
              Bcc     0.4420    59.314    21.165    19.785 -0.0444  0.0105  0.9990
 
              Baa    -0.1227   -16.465    -5.875    -5.492 -0.0411  0.0075  0.9991
    13 C(13)  Bbb     0.0527     7.071     2.523     2.359 -0.4300  0.9025 -0.0245
              Bcc     0.0700     9.394     3.352     3.134  0.9019  0.4307  0.0339
 
              Baa    -0.0320   -17.070    -6.091    -5.694  0.8232 -0.5661  0.0422
    14 H(1)   Bbb    -0.0041    -2.195    -0.783    -0.732 -0.0445  0.0098  0.9990
              Bcc     0.0361    19.265     6.874     6.426  0.5659  0.8243  0.0172
 
              Baa    -0.1892   -25.382    -9.057    -8.467  0.3432  0.9392  0.0077
    15 C(13)  Bbb    -0.1788   -23.992    -8.561    -8.003  0.9386 -0.3433  0.0337
              Bcc     0.3679    49.374    17.618    16.470 -0.0343  0.0043  0.9994
 
              Baa    -0.0061    -3.263    -1.164    -1.088 -0.0403  0.0060  0.9992
    16 H(1)   Bbb    -0.0023    -1.251    -0.447    -0.417 -0.2304  0.9730 -0.0151
              Bcc     0.0085     4.514     1.611     1.506  0.9723  0.2308  0.0378
 
              Baa    -0.0250   -13.350    -4.763    -4.453  0.1511  0.9885 -0.0015
    17 H(1)   Bbb    -0.0053    -2.853    -1.018    -0.952 -0.0378  0.0073  0.9993
              Bcc     0.0304    16.203     5.781     5.405  0.9878 -0.1509  0.0384
 
              Baa    -0.5480    39.653    14.149    13.227  0.5003  0.8656  0.0238
    18 O(17)  Bbb    -0.5217    37.748    13.470    12.592  0.8635 -0.5007  0.0598
              Bcc     1.0697   -77.401   -27.619   -25.818 -0.0637  0.0094  0.9979
 
              Baa    -0.0067    -3.567    -1.273    -1.190 -0.1408  0.0213  0.9898
    19 H(1)   Bbb    -0.0049    -2.608    -0.931    -0.870 -0.0507  0.9983 -0.0286
              Bcc     0.0116     6.175     2.203     2.060  0.9887  0.0542  0.1395
 
              Baa    -0.0015     0.111     0.040     0.037  0.4738 -0.6178  0.6276
    20 O(17)  Bbb    -0.0007     0.048     0.017     0.016 -0.3947  0.4881  0.7784
              Bcc     0.0022    -0.158    -0.057    -0.053  0.7873  0.6165  0.0126
 
              Baa    -0.0025     0.179     0.064     0.060  0.1090 -0.5047  0.8564
    21 O(17)  Bbb    -0.0013     0.095     0.034     0.032  0.0862  0.8631  0.4976
              Bcc     0.0038    -0.274    -0.098    -0.091  0.9903 -0.0196 -0.1376
 
              Baa    -0.0016    -0.872    -0.311    -0.291  0.3231 -0.0997  0.9411
    22 H(1)   Bbb    -0.0013    -0.673    -0.240    -0.224 -0.0667  0.9896  0.1277
              Bcc     0.0029     1.545     0.551     0.515  0.9440  0.1040 -0.3131
 

 ---------------------------------------------------------------------------------

 Calling FoFJK, ICntrl=    100147 FMM=F ISym2X=0 I1Cent= 0 IOpClX= 1 NMat=1 NMatS=1 NMatT=0.
 ***** Axes restored to original set *****
 -------------------------------------------------------------------
 Center     Atomic                   Forces (Hartrees/Bohr)
 Number     Number              X              Y              Z
 -------------------------------------------------------------------
      1        6           0.001291773   -0.001441111    0.000033979
      2        6           0.001847069   -0.000748875    0.000069249
      3        6           0.000424124    0.001689967   -0.000034323
      4        6           0.000246885    0.001230966    0.000040088
      5        6          -0.001276405   -0.001744495    0.000029733
      6        6          -0.001955617    0.000031406    0.000084116
      7        1          -0.001766227   -0.001873080   -0.000029974
      8        1           0.001201300   -0.002298200    0.000100687
      9        1           0.002610122   -0.000088729    0.000138718
     10        1           0.001382714    0.002286643    0.000039569
     11        6           0.003679571    0.005636895   -0.000052517
     12        6           0.000823242    0.000904996   -0.000074871
     13        6           0.000167070    0.002340751    0.000111088
     14        1           0.001416362    0.002107089    0.000028586
     15        6          -0.002206535   -0.001338539   -0.000180991
     16        1          -0.001146980    0.002222232   -0.000077600
     17        1          -0.002836653   -0.000448124   -0.000204718
     18        8          -0.004173060   -0.008758962   -0.000116220
     19        1           0.002239275   -0.000448266    0.001431430
     20        8          -0.003249768   -0.001230699   -0.003917991
     21        8           0.003671701    0.005225920    0.000920474
     22        1          -0.002389962   -0.003257785    0.001661490
 -------------------------------------------------------------------
 Cartesian Forces:  Max     0.008758962 RMS     0.002194278
 FormGI is forming the generalized inverse of G from B-inverse, IUseBI=4.

 GradGradGradGradGradGradGradGradGradGradGradGradGradGradGradGradGradGrad
 Berny optimization.
 Internal  Forces:  Max     0.009024455 RMS     0.001958199
 Search for a saddle point.
 Step number   1 out of a maximum of  132
 All quantities printed in internal units (Hartrees-Bohrs-Radians)
 Swapping is turned off.
 Second derivative matrix not updated -- analytic derivatives used.
 ITU=  0
     Eigenvalues ---    0.00485   0.00814   0.00894   0.01444   0.01535
     Eigenvalues ---    0.01565   0.01770   0.01855   0.01896   0.02013
     Eigenvalues ---    0.02124   0.02242   0.02337   0.02456   0.02497
     Eigenvalues ---    0.02580   0.02682   0.02798   0.02863   0.03384
     Eigenvalues ---    0.03642   0.09455   0.11061   0.11180   0.11396
     Eigenvalues ---    0.12324   0.12567   0.12621   0.12828   0.17616
     Eigenvalues ---    0.17977   0.18763   0.18917   0.19418   0.20009
     Eigenvalues ---    0.20651   0.22685   0.26136   0.28615   0.29537
     Eigenvalues ---    0.31614   0.36848   0.36930   0.37244   0.37326
     Eigenvalues ---    0.37433   0.37555   0.37852   0.38680   0.40161
     Eigenvalues ---    0.40623   0.43858   0.45079   0.46203   0.49863
     Eigenvalues ---    0.51061   0.51357   0.53676   0.54975   0.79285
 Eigenvectors required to have negative eigenvalues:
                          D48       D38       D37       A35       D47
   1                    0.53833   0.51820   0.51269   0.30811  -0.26399
                          A34       D33       D34       D35       D36
   1                    0.05625   0.03644   0.03461   0.03112   0.02929
 RFO step:  Lambda0=5.041860860D-03 Lambda=-1.13442190D-03.
 Linear search not attempted -- option 19 set.
 Iteration  1 RMS(Cart)=  0.03754543 RMS(Int)=  0.00161532
 Iteration  2 RMS(Cart)=  0.00379428 RMS(Int)=  0.00001095
 Iteration  3 RMS(Cart)=  0.00001563 RMS(Int)=  0.00000291
 Iteration  4 RMS(Cart)=  0.00000000 RMS(Int)=  0.00000291
 Variable       Old X    -DE/DX   Delta X   Delta X   Delta X     New X
                                 (Linear)    (Quad)   (Total)
    R1        2.64506   0.00426   0.00000   0.00809   0.00809   2.65315
    R2        2.61024   0.00468   0.00000   0.00818   0.00818   2.61842
    R3        2.04223   0.00261   0.00000   0.00665   0.00665   2.04889
    R4        2.60109   0.00507   0.00000   0.00890   0.00890   2.60999
    R5        2.04329   0.00261   0.00000   0.00670   0.00670   2.04999
    R6        2.65865   0.00408   0.00000   0.00745   0.00745   2.66609
    R7        2.04360   0.00265   0.00000   0.00685   0.00685   2.05045
    R8        2.66513   0.00457   0.00000   0.00853   0.00853   2.67366
    R9        2.69268   0.00384   0.00000   0.00757   0.00757   2.70025
   R10        2.63408   0.00413   0.00000   0.00808   0.00808   2.64216
   R11        2.04124   0.00257   0.00000   0.00646   0.00646   2.04770
   R12        2.78466   0.00202   0.00000   0.00350   0.00350   2.78816
   R13        2.73388   0.00299   0.00000   0.00543   0.00543   2.73932
   R14        2.33873   0.00902   0.00000   0.01344   0.01344   2.35217
   R15        2.62615   0.00421   0.00000   0.00659   0.00659   2.63274
   R16        2.04356   0.00255   0.00000   0.00663   0.00663   2.05020
   R17        2.60271   0.00535   0.00000   0.01109   0.01109   2.61380
   R18        2.04258   0.00250   0.00000   0.00635   0.00635   2.04894
   R19        2.04427   0.00280   0.00000   0.00596   0.00596   2.05023
   R20        3.39171  -0.00018   0.00000   0.00225   0.00225   3.39396
   R21        1.84741   0.00230   0.00000   0.00714   0.00714   1.85455
   R22        2.68447   0.00312   0.00000   0.01166   0.01166   2.69613
   R23        1.81899   0.00420   0.00000   0.00825   0.00825   1.82723
    A1        2.09952  -0.00020   0.00000  -0.00068  -0.00068   2.09883
    A2        2.09090   0.00010   0.00000   0.00027   0.00027   2.09117
    A3        2.09276   0.00010   0.00000   0.00041   0.00041   2.09317
    A4        2.09748   0.00008   0.00000   0.00082   0.00082   2.09831
    A5        2.09240  -0.00001   0.00000  -0.00000  -0.00000   2.09240
    A6        2.09329  -0.00006   0.00000  -0.00082  -0.00082   2.09248
    A7        2.10144   0.00007   0.00000   0.00006   0.00006   2.10150
    A8        2.10510   0.00002   0.00000  -0.00003  -0.00003   2.10507
    A9        2.07664  -0.00009   0.00000  -0.00003  -0.00003   2.07661
   A10        2.07726  -0.00032   0.00000  -0.00120  -0.00120   2.07606
   A11        2.12046   0.00049   0.00000   0.00289   0.00289   2.12335
   A12        2.08547  -0.00017   0.00000  -0.00169  -0.00169   2.08377
   A13        2.09749  -0.00007   0.00000  -0.00058  -0.00058   2.09691
   A14        2.11662   0.00046   0.00000   0.00427   0.00427   2.12088
   A15        2.06908  -0.00038   0.00000  -0.00369  -0.00369   2.06539
   A16        2.09318   0.00044   0.00000   0.00157   0.00157   2.09475
   A17        2.08849   0.00026   0.00000   0.00139   0.00138   2.08987
   A18        2.10151  -0.00071   0.00000  -0.00296  -0.00295   2.09855
   A19        2.04967   0.00069   0.00000   0.00223   0.00222   2.05189
   A20        2.11143   0.00031   0.00000  -0.00467  -0.00467   2.10676
   A21        2.12208  -0.00100   0.00000   0.00245   0.00245   2.12453
   A22        2.11685  -0.00018   0.00000  -0.00020  -0.00020   2.11666
   A23        2.07104   0.00006   0.00000  -0.00004  -0.00004   2.07100
   A24        2.09529   0.00012   0.00000   0.00024   0.00024   2.09553
   A25        2.11139  -0.00028   0.00000   0.00134   0.00134   2.11272
   A26        2.08386   0.00018   0.00000  -0.00013  -0.00013   2.08373
   A27        2.08793   0.00010   0.00000  -0.00120  -0.00120   2.08672
   A28        2.11449  -0.00032   0.00000  -0.00304  -0.00304   2.11145
   A29        2.04351  -0.00042   0.00000   0.00069   0.00069   2.04421
   A30        2.12506   0.00075   0.00000   0.00234   0.00234   2.12741
   A31        2.04217  -0.00458   0.00000  -0.04942  -0.04942   1.99275
   A32        1.76686  -0.00353   0.00000  -0.01153  -0.01153   1.75532
   A33        1.78374  -0.00184   0.00000  -0.01147  -0.01147   1.77227
   A34        2.96282  -0.00283   0.00000  -0.04254  -0.04254   2.92028
   A35        3.20995   0.00051   0.00000   0.02934   0.02934   3.23929
    D1        0.00058  -0.00000   0.00000  -0.00129  -0.00129  -0.00072
    D2       -3.13757  -0.00002   0.00000  -0.00250  -0.00250  -3.14007
    D3        3.13795   0.00002   0.00000  -0.00034  -0.00034   3.13761
    D4       -0.00020  -0.00000   0.00000  -0.00154  -0.00154  -0.00174
    D5       -0.00062   0.00001   0.00000   0.00143   0.00143   0.00081
    D6        3.14064   0.00001   0.00000  -0.00001  -0.00001   3.14062
    D7       -3.13798  -0.00001   0.00000   0.00048   0.00048  -3.13751
    D8        0.00327  -0.00001   0.00000  -0.00097  -0.00097   0.00230
    D9       -0.00060   0.00000   0.00000   0.00006   0.00006  -0.00053
   D10       -3.13987  -0.00002   0.00000  -0.00099  -0.00099  -3.14086
   D11        3.13755   0.00002   0.00000   0.00127   0.00127   3.13882
   D12       -0.00172   0.00000   0.00000   0.00021   0.00021  -0.00151
   D13        0.00066  -0.00001   0.00000   0.00099   0.00099   0.00165
   D14       -3.14009  -0.00002   0.00000   0.00139   0.00139  -3.13870
   D15        3.13996   0.00001   0.00000   0.00203   0.00203  -3.14119
   D16       -0.00078   0.00000   0.00000   0.00243   0.00243   0.00164
   D17       -0.00070   0.00002   0.00000  -0.00085  -0.00085  -0.00154
   D18       -3.13866   0.00001   0.00000  -0.00140  -0.00140  -3.14006
   D19        3.14007   0.00003   0.00000  -0.00124  -0.00124   3.13883
   D20        0.00210   0.00002   0.00000  -0.00179  -0.00179   0.00031
   D21       -3.14092   0.00002   0.00000  -0.00274  -0.00274   3.13953
   D22       -0.00145   0.00000   0.00000  -0.00192  -0.00192  -0.00337
   D23        0.00152   0.00001   0.00000  -0.00234  -0.00234  -0.00081
   D24        3.14099  -0.00001   0.00000  -0.00152  -0.00152   3.13947
   D25        0.00068  -0.00002   0.00000  -0.00036  -0.00036   0.00033
   D26        3.13862  -0.00001   0.00000   0.00021   0.00021   3.13883
   D27       -3.14058  -0.00002   0.00000   0.00105   0.00104  -3.13954
   D28       -0.00264  -0.00001   0.00000   0.00161   0.00161  -0.00103
   D29       -0.00513  -0.00002   0.00000   0.00701   0.00702   0.00189
   D30        3.13460   0.00004   0.00000   0.01150   0.01149  -3.13709
   D31        3.14011  -0.00003   0.00000   0.00644   0.00645  -3.13662
   D32       -0.00334   0.00003   0.00000   0.01093   0.01093   0.00758
   D33        0.00478  -0.00000   0.00000  -0.00856  -0.00855  -0.00377
   D34       -3.12044  -0.00004   0.00000  -0.00815  -0.00815  -3.12859
   D35       -3.13493  -0.00007   0.00000  -0.01307  -0.01307   3.13518
   D36        0.02302  -0.00010   0.00000  -0.01266  -0.01266   0.01036
   D37       -2.99500  -0.00047   0.00000   0.07450   0.07451  -2.92049
   D38        0.14465  -0.00040   0.00000   0.07918   0.07917   0.22383
   D39       -0.00198  -0.00004   0.00000   0.00092   0.00092  -0.00106
   D40        3.13437   0.00001   0.00000   0.00241   0.00240   3.13677
   D41       -3.14141  -0.00002   0.00000   0.00009   0.00009  -3.14132
   D42       -0.00506   0.00002   0.00000   0.00157   0.00157  -0.00349
   D43       -0.00132   0.00003   0.00000   0.00473   0.00473   0.00341
   D44        3.12314   0.00006   0.00000   0.00429   0.00428   3.12742
   D45       -3.13765  -0.00001   0.00000   0.00325   0.00324  -3.13441
   D46       -0.01320   0.00002   0.00000   0.00280   0.00280  -0.01040
   D47       -1.06642   0.00026   0.00000  -0.11808  -0.11808  -1.18450
   D48       -1.76551  -0.00063   0.00000   0.03429   0.03429  -1.73122
         Item               Value     Threshold  Converged?
 Maximum Force            0.009024     0.002500     NO 
 RMS     Force            0.001958     0.001667     NO 
 Maximum Displacement     0.179862     0.010000     NO 
 RMS     Displacement     0.037998     0.006667     NO 
 Predicted change in Energy=-4.040628D-04
 GradGradGradGradGradGradGradGradGradGradGradGradGradGradGradGradGradGrad

                          Input orientation:                          
 ---------------------------------------------------------------------
 Center     Atomic      Atomic             Coordinates (Angstroms)
 Number     Number       Type             X           Y           Z
 ---------------------------------------------------------------------
      1          6           0        2.855168   -1.688107    0.075896
      2          6           0        3.630197   -0.517420    0.078273
      3          6           0        3.019457    0.720783    0.040664
      4          6           0        1.612895    0.822255   -0.001118
      5          6           0        1.472331   -1.609799    0.036670
      6          6           0        0.840483   -0.363138   -0.001786
      7          1           0        0.854427   -2.499946    0.033181
      8          1           0        3.341631   -2.656726    0.101812
      9          1           0        4.712453   -0.585717    0.107652
     10          1           0        3.612315    1.629547    0.041577
     11          6           0       -0.631755   -0.277392   -0.047111
     12          6           0        0.953300    2.089093   -0.044109
     13          6           0       -0.436236    2.179943   -0.087660
     14          1           0        1.557089    2.990466   -0.041094
     15          6           0       -1.225651    1.044184   -0.092004
[...]
 00017998,0.05043972,0.66288055,0.00000803,-0.00007525,-0.00054592,0.00
 007587,0.00017496,0.00586789,0.00042275,-0.00034184,0.00323974,0.00023
 651,-0.00014130,-0.05869622,-0.00002810,0.00010070,0.00619270,-0.00029
 256,-0.00013501,0.00180424,-0.00000743,0.00001203,0.00018112,-0.000009
 92,-0.00000119,-0.00112661,0.00000457,-0.00000582,0.00039879,-0.000023
 07,-0.00002278,-0.00341811,-0.00009732,-0.00047828,-0.00466771,-0.0047
 9549,0.00031705,0.12993794,-0.00535863,-0.00587970,0.00004261,0.000462
 24,0.01417915,-0.00006580,0.02167062,-0.00614909,-0.00007228,-0.044878
 90,0.05795233,0.00087497,0.00032937,-0.00082283,0.00000582,-0.01643871
 ,-0.01158164,0.00018156,-0.00036351,0.00026021,0.00000286,-0.00004669,
 -0.00002463,-0.00000132,-0.00015364,0.00035317,-0.00000562,0.00022863,
 -0.00029383,0.00001510,0.01895428,-0.03334298,-0.00030699,-0.29731817,
 -0.02172433,0.00264802,0.62837887,-0.00048656,-0.00217916,0.00000486,0
 .00180465,0.00558058,-0.00003948,0.00926179,-0.00877443,-0.00003362,0.
 02114104,0.02624684,-0.00001186,-0.00154273,0.00118374,-0.00001424,-0.
 00460139,-0.00603780,0.00002654,-0.00040273,0.00018760,0.00000244,-0.0
 0009744,0.00000699,0.00000775,0.00019318,-0.00040423,-0.00000295,0.000
 43425,0.00002944,0.00000134,-0.01861256,-0.05058217,-0.00000668,0.0830
 4852,-0.13227245,-0.00156491,-0.06455360,0.72100057,0.00003027,0.00005
 341,-0.00016360,-0.00000216,-0.00013082,-0.00003289,-0.00020541,0.0000
 6187,0.00414751,0.00055339,-0.00065223,0.00561351,0.00002338,-0.000015
 64,-0.00058699,0.00014797,0.00020915,-0.00091310,0.00000270,-0.0000010
 9,-0.00001059,-0.00000012,0.00000088,0.00022349,-0.00000239,-0.0000049
 1,-0.00049088,0.00000506,0.00000222,0.00008651,-0.00037063,0.00004849,
 0.00124710,0.00381822,-0.00028313,-0.05659376,-0.00829497,0.00458149,0
 .12598456,0.00024856,0.00010088,-0.00000088,-0.00004611,-0.00057230,0.
 00000310,0.00117466,0.00137685,-0.00002857,0.01118289,0.01284328,-0.00
 003495,0.00062288,0.00067959,-0.00000559,-0.00157705,0.00277137,0.0000
 4279,-0.00012622,0.00021127,-0.00000241,-0.00001990,-0.00002771,0.0000
 0023,0.00001091,-0.00001514,0.00000076,-0.00006890,-0.00063039,0.00000
 148,-0.00060675,0.00051593,-0.00000944,-0.13725209,-0.12491860,0.00026
 139,-0.01011730,-0.02796985,0.00009777,0.14163627,0.00020168,0.0002415
 6,-0.00000158,0.00030910,-0.00002003,-0.00000312,-0.00194504,0.0010940
 1,0.00000950,-0.01632824,-0.01826007,0.00011778,-0.00160149,-0.0006755
 6,0.00001194,0.00423048,-0.00257544,-0.00002843,0.00028041,-0.00036296
 ,-0.00000031,0.00007391,0.00003775,-0.00000020,0.00003283,-0.00003009,
 0.00000003,0.00121943,0.00012231,0.00000575,0.00092218,-0.00070106,-0.
 00000533,-0.12562863,-0.26118124,0.00037913,0.00247541,0.00528156,-0.0
 0002681,0.13490907,0.27387774,-0.00000315,0.00000013,0.00008715,-0.000
 00006,0.00000517,-0.00000527,-0.00002287,-0.00000149,-0.00264672,-0.00
 004767,-0.00006058,0.00511984,0.00000022,-0.00000776,-0.00022479,0.000
 01398,0.00000360,0.00446030,-0.00000172,0.00000019,-0.00020710,0.00000
 100,0.00000043,0.00005154,0.00000041,0.00000094,0.00006518,0.00002759,
 -0.00000843,0.00026682,-0.00001404,-0.00001739,-0.00088833,0.00028505,
 0.00028050,-0.03730097,0.00015468,0.00016393,0.00669074,-0.00046161,-0
 .00043529,0.02286137,0.00234367,0.00233276,-0.00001614,-0.00113536,-0.
 00434305,0.00002462,-0.00564596,0.00187105,0.00003380,0.00755216,-0.01
 110379,-0.00006173,-0.00746397,-0.00147770,0.00009876,-0.00820741,0.03
 211135,0.00018540,0.00017095,-0.00007805,-0.00000327,-0.00069486,0.000
 11464,-0.00000656,0.00010875,-0.00021288,-0.00000361,-0.00011298,-0.00
 002429,0.00000228,-0.16994820,0.07860643,0.00170426,-0.05733224,-0.021
 72709,0.00074157,-0.17748109,-0.12976492,0.00166235,-0.00586482,0.0010
 9450,0.00016976,0.73068911,0.00209240,0.00469566,-0.00000491,0.0005861
 2,-0.00622418,0.00003578,-0.00914107,0.00274451,0.00009081,0.01473901,
 -0.02749736,-0.00037851,-0.00234009,0.00125550,-0.00001834,0.01512358,
 0.00517367,-0.00062250,0.00005265,0.00007905,-0.00002442,-0.00002433,-
 0.00003182,0.00000936,-0.00001839,-0.00009012,-0.00000683,0.00006324,0
 .00015166,-0.00001133,0.09352463,-0.16351392,-0.00045058,-0.08963882,0
 .02150198,0.00167119,-0.04568747,-0.28609061,-0.00034265,0.00198386,0.
 00194744,0.00001847,0.05550818,0.62787936,-0.00006076,-0.00003236,-0.0
 0025257,0.00000630,0.00008491,-0.00007625,0.00010256,-0.00005107,-0.00
 088779,-0.00024016,0.00014347,-0.00146340,0.00007978,-0.00001796,0.002
 29793,0.00030217,-0.00054970,0.01055461,-0.00000423,-0.00000229,0.0001
 7373,0.00000650,-0.00000196,-0.00036087,0.00000080,0.00000346,0.000227
 82,-0.00001184,-0.00000184,-0.00002521,0.00182918,-0.00151046,-0.07109
 537,0.00066690,0.00057607,0.00406504,0.00198337,0.00073898,-0.05249053
 ,0.00023245,-0.00003386,0.00612262,-0.01541894,0.00101456,0.11906560,-
 0.00000221,-0.00018113,0.00000374,-0.00054539,0.00006787,-0.00000753,0
 .00027406,0.00153398,-0.00000946,-0.00557305,-0.00194531,0.00017633,0.
 00011185,0.00016470,-0.00001254,0.00002927,-0.00075451,-0.00001350,-0.
 00004728,0.00004794,0.00000088,0.00001146,0.00001822,0.00000130,-0.000
 07250,0.00015186,0.00000064,-0.00003128,-0.00004844,0.00000196,-0.0029
 8783,-0.00226319,0.00017256,-0.00930031,0.03035155,0.00038026,-0.12284
 611,0.11599521,0.00216129,0.00087666,-0.00034518,-0.00008242,0.0129893
 0,-0.01685508,-0.00019319,0.12574041,-0.00013301,-0.00007140,0.0000001
 4,0.00002125,0.00016302,0.00000401,0.00007277,-0.00006144,-0.00000558,
 -0.00055169,0.00130237,-0.00005229,0.00020246,-0.00003656,0.00000486,-
 0.00040260,0.00025205,0.00001321,-0.00004411,0.00002294,-0.00000012,0.
 00001787,-0.00001080,-0.00000116,0.00000086,0.00000014,0.00000070,0.00
 001918,-0.00000046,-0.00000081,-0.00447799,0.00012813,-0.00000049,-0.0
 0208098,0.00339613,-0.00000051,0.11783073,-0.28712628,-0.00381017,0.00
 019901,0.00055946,0.00004373,0.01398374,-0.01928428,-0.00032841,-0.125
 12267,0.30212514,0.00001719,0.00002017,0.00020892,0.00000537,-0.000043
 58,-0.00063715,-0.00006286,-0.00000920,0.00048103,0.00023924,-0.000068
 43,0.00687239,-0.00000503,0.00000186,-0.00067697,0.00003622,0.00003318
 ,-0.00096353,0.00000145,-0.00000190,0.00002355,0.00000102,-0.00000008,
 0.00009804,0.00000109,-0.00000400,-0.00006695,0.00000132,0.00000140,0.
 00010815,0.00023970,0.00012684,0.00938597,-0.00023458,-0.00034999,0.00
 333719,0.00278603,-0.00368366,-0.04268392,-0.00007463,0.00001412,-0.00
 381468,-0.00021183,-0.00027252,0.00531849,-0.00240611,0.00415882,0.029
 25489,-0.00028620,0.00002370,-0.00001535,0.00001787,0.00017068,0.00001
 152,0.00001215,-0.00019415,-0.00002713,0.00041549,0.00024394,-0.000046
 45,0.00011193,-0.00052809,0.00002406,-0.00013496,0.00179112,0.00019065
 ,0.00003302,0.00002842,0.00000327,-0.00004092,-0.00001388,-0.00000621,
 0.00001262,-0.00000358,0.00000155,0.00000109,-0.00000499,0.00000159,-0
 .00825132,-0.00096548,0.00047995,-0.00000948,-0.00160828,0.00038586,-0
 .00540657,0.00276865,0.00056333,-0.00024064,0.00018619,-0.00002598,-0.
 34439131,0.00701832,0.00881274,0.00065057,0.00004124,-0.00030304,0.359
 10408,0.00026966,-0.00036432,0.00000204,-0.00002267,-0.00018672,0.0000
 0074,-0.00016810,0.00025209,0.00000053,0.00013889,-0.00080907,0.000014
 40,0.00138216,0.00077577,0.00000079,0.00096446,-0.00571421,0.00000226,
 -0.00003474,-0.00000187,0.00000142,0.00018327,-0.00000807,-0.00000519,
 0.00000688,0.00002031,0.00000067,0.00008656,0.00002347,-0.00000071,0.0
 3071932,0.00376002,-0.00093735,-0.00269539,-0.00470152,-0.00005900,-0.
 02606714,0.00670094,0.00075897,-0.00132665,0.00016769,0.00000659,0.006
 00664,-0.06169460,-0.00013607,0.00038694,0.00090603,0.00002756,-0.0065
 9465,0.06090023,-0.00003053,0.00000650,-0.00028571,0.00000336,0.000050
 61,0.00023336,0.00006289,-0.00000221,-0.00050921,-0.00005245,0.0000652
 3,-0.00083252,-0.00002729,0.00000021,0.00059820,-0.00013191,0.00008511
 ,0.00313684,0.00000248,0.00000193,0.00007031,-0.00000704,0.00000308,-0
 .00014852,-0.00000524,0.00000293,0.00003387,0.00000337,-0.00000245,0.0
 0002582,0.00009761,0.00005428,0.00515573,0.00023875,-0.00034233,0.0073
 6496,-0.00077008,0.00000301,0.00643288,-0.00008435,-0.00000182,-0.0005
 9047,0.01083192,-0.00030366,-0.03901502,-0.00012066,-0.00003638,-0.004
 68544,-0.01009806,0.00007532,0.02618972,-0.00458873,-0.00356929,0.0000
 5019,-0.00014789,0.00368030,0.00000066,0.00161565,-0.00400614,0.000010
 61,-0.01010649,0.01241938,0.00008451,0.00671297,-0.00723458,-0.0000799
 4,-0.05703615,-0.04771259,-0.00027066,-0.00260212,-0.00058307,-0.00003
 154,-0.00027187,0.00013065,-0.00000323,-0.00016588,0.00003471,-0.00000
 118,-0.00100924,-0.00015329,0.00001685,-0.24103944,-0.20929368,-0.0017
 6976,-0.00792658,-0.00458452,0.00017927,0.01215409,0.01235926,-0.00011
 500,0.00033671,-0.00010275,0.00000621,0.02441435,-0.02534789,0.0000110
 9,0.00066664,0.00031300,-0.00006960,0.00063397,-0.00273999,0.00011537,
 0.29037114,-0.00937748,-0.00010261,0.00008767,0.00205263,0.00877011,-0
 .00004173,0.00735321,-0.00349518,-0.00001783,-0.00520508,0.01124721,0.
 00001108,0.01130807,-0.01215692,-0.00012235,-0.04912799,-0.00033808,0.
 00000453,0.00073067,0.00282885,0.00002726,-0.00042852,-0.00007008,0.00
 002201,-0.00009081,0.00039059,-0.00000314,-0.00006055,-0.00006501,-0.0
 0001237,-0.22574305,-0.43298479,-0.00288086,-0.00680660,-0.01065703,0.
 00018564,0.02331639,0.00717228,-0.00028326,-0.00011627,0.00047741,0.00
 000055,-0.02170781,-0.10172339,-0.00075989,-0.00124918,-0.00230900,0.0
 0005425,-0.00205845,0.00291175,0.00024553,0.27138968,0.53185661,-0.000
 03093,0.00000488,-0.00036914,0.00000812,0.00003726,-0.00003859,0.00003
 599,-0.00005073,-0.00078736,-0.00010119,0.00012153,0.00335164,-0.00000
 837,-0.00006799,-0.00059979,-0.00021187,-0.00030854,0.01276359,0.00006
 372,-0.00000612,-0.00015226,-0.00000950,0.00000346,0.00005868,-0.00000
 462,0.00000145,0.00011081,-0.00001462,-0.00000242,-0.00015186,-0.00189
 730,-0.00247897,-0.05889692,0.00004884,-0.00006417,-0.00003211,0.00011
 352,-0.00013653,0.00361475,-0.00000550,-0.00000376,-0.00004776,-0.0003
 1917,-0.00088178,0.01806632,-0.00006185,-0.00004809,-0.00161281,-0.000
 19281,0.00008076,-0.00288530,0.00426673,0.00314996,0.03038718,-0.00090
 987,-0.00028804,0.00002105,0.00004697,0.00092840,-0.00000211,0.0008008
 5,-0.00055087,0.00001158,0.00037394,-0.00046389,-0.00006516,0.00102122
 ,0.00002403,0.00004497,0.00232458,0.00256015,-0.00040309,-0.00031624,0
 .00030158,-0.00001068,0.00012221,-0.00008306,-0.00000816,0.00010078,0.
 00001470,-0.00000418,0.00013099,0.00006563,0.00001023,-0.00624812,-0.0
 1365977,-0.00001411,-0.00088388,0.00037434,0.00001875,0.00064202,0.000
 79376,-0.00004602,0.00003857,0.00004052,0.00000263,0.00006086,0.000598
 08,0.00066476,0.00015599,0.00041994,-0.00004723,0.00236533,0.00007480,
 -0.00069041,0.00749389,0.00919600,0.00103397,0.43599088,-0.00003774,-0
 .00009806,-0.00000277,0.00000556,-0.00006827,0.00000256,-0.00015414,-0
 .00007594,0.00001092,0.00002462,-0.00007369,0.00000933,0.00032535,0.00
 004607,-0.00000016,-0.00034674,-0.00060213,-0.00007980,0.00003441,0.00
 005654,0.00000487,0.00003530,-0.00000590,-0.00000175,0.00001156,-0.000
 00834,-0.00000059,-0.00001483,0.00000822,-0.00000084,-0.00461226,0.000
 95373,-0.00041313,-0.00043323,0.00039374,-0.00002550,0.00118757,-0.000
 15553,-0.00002298,0.00011048,-0.00000597,0.00000224,-0.00201586,0.0001
 0897,0.00030077,-0.00001036,-0.00001606,-0.00000084,-0.00025661,-0.002
 09025,-0.00026775,0.00349747,-0.00712440,0.00018935,-0.08080197,0.0680
 5477,-0.00007268,-0.00000957,-0.00004211,0.00001441,0.00008572,-0.0000
 0715,0.00008985,-0.00001895,-0.00010658,0.00007381,-0.00002196,0.00011
 373,0.00005614,-0.00002058,-0.00016333,0.00036260,0.00038660,0.0014828
 1,-0.00004334,0.00003149,0.00007586,0.00000942,-0.00000728,0.00003428,
 0.00000744,0.00000208,0.00001297,0.00001838,0.00000473,-0.00002094,-0.
 00005720,-0.00158725,0.00063209,0.00000739,-0.00001235,0.00003094,-0.0
 0005399,0.00011006,-0.00002008,-0.00000244,0.00000627,0.00000808,0.000
 12576,0.00017651,-0.00131966,0.00002690,0.00005278,0.00007801,0.000138
 61,0.00019553,0.00081039,0.00151752,0.00082308,-0.00627056,0.07192140,
 0.02100009,0.05596235,0.00041308,0.00011844,-0.00001130,-0.00002806,-0
 .00041873,0.00000422,-0.00035283,0.00022125,-0.00001386,-0.00031184,0.
 00034827,0.00003695,-0.00047012,-0.00005547,-0.00000418,-0.00113686,-0
 .00156763,0.00016546,0.00018376,-0.00016914,-0.00000370,-0.00006407,0.
 00004451,0.00000484,-0.00005519,-0.00000718,0.00000119,-0.00007430,-0.
 00003933,-0.00000332,0.00177494,0.00789300,0.00019934,0.00053783,-0.00
 022272,0.00001637,-0.00043773,-0.00021269,-0.00008158,-0.00003459,-0.0
 0002547,-0.00000014,0.00128914,-0.00017142,-0.00026967,-0.00007235,-0.
 00018969,0.00001325,-0.00131089,-0.00081533,0.00039431,-0.02132452,-0.
 00305652,-0.00199355,-0.44254509,0.04206260,-0.11258038,0.54008560,-0.
 00002115,0.00001504,-0.00000178,-0.00000158,0.00006154,0.00000036,0.00
 008334,0.00000708,-0.00001820,-0.00002264,0.00003080,-0.00000722,-0.00
 006109,-0.00003212,-0.00000474,0.00017132,0.00021134,0.00008264,-0.000
 01931,-0.00001361,0.00001022,-0.00000913,-0.00000057,0.00000363,-0.000
 00020,0.00000279,0.00000121,0.00001091,-0.00000006,0.00000307,0.000713
 44,-0.00071495,0.00028108,0.00016374,-0.00002162,0.00002901,-0.0000593
 4,0.00001410,-0.00016392,-0.00000155,0.00000314,0.00000647,0.00095082,
 0.00073254,0.00045645,0.00003040,0.00007153,0.00000172,0.00042128,-0.0
 0070276,-0.00063147,0.00049942,0.00348457,-0.00056644,0.08899819,-0.03
 671349,0.00382943,-0.13716032,0.23370260,0.00003265,-0.00001727,0.0000
 2094,-0.00000941,-0.00006153,0.00000417,-0.00008463,-0.00000580,0.0000
 3847,-0.00003954,-0.00001250,-0.00003841,0.00002897,0.00002164,0.00005
 183,-0.00022687,-0.00031911,-0.00038660,0.00003362,-0.00002205,-0.0000
 3659,0.00000112,0.00000264,-0.00001532,-0.00000162,-0.00000300,-0.0000
 0706,-0.00001367,-0.00000003,0.00000108,-0.00035779,0.00150263,-0.0003
 8405,-0.00009680,0.00011628,-0.00002128,0.00036265,-0.00014035,0.00002
 770,0.00003094,-0.00000579,-0.00001071,-0.00047678,0.00033687,0.000858
 31,-0.00001599,-0.00002256,-0.00004454,0.00043190,-0.00072727,-0.00120
 662,-0.00401187,-0.00085777,0.00286657,-0.06596537,-0.01691031,-0.0420
 3166,0.07348764,0.15539542,0.17594865,0.00011711,0.00012883,0.00000276
 ,0.00000287,-0.00003626,-0.00000368,0.00007802,0.00014277,0.00000180,-
 0.00014120,0.00018571,0.00000816,-0.00042931,-0.00001768,-0.00001686,0
 .00003165,0.00021393,0.00006012,0.00003121,-0.00000846,0.00000527,-0.0
 0004386,0.00002294,0.00000341,-0.00003595,0.00000810,0.00000114,-0.000
 00866,-0.00002601,-0.00000144,-0.00092086,-0.00150000,-0.00027218,0.00
 068068,-0.00073143,-0.00010247,-0.00239665,0.00032550,0.00004595,-0.00
 021140,-0.00000275,0.00000018,-0.00100448,-0.00154762,0.00109876,0.000
 01813,-0.00008201,0.00007142,-0.00186302,-0.00008379,0.00074342,0.0012
 5131,-0.00025559,-0.00094586,-0.00034941,0.03990424,0.03718370,-0.0727
 9312,0.04834160,0.00305563,0.38357243,-0.00000834,0.00008758,0.0000004
 3,0.00000410,0.00008281,0.00000012,0.00015427,0.00004864,0.00000942,-0
 .00009419,0.00011671,-0.00000663,-0.00024905,-0.00005832,0.00001409,0.
 00015944,0.00044733,-0.00010457,-0.00002582,0.00001126,-0.00000781,-0.
 00002830,0.00000786,-0.00000143,-0.00001280,0.00000951,-0.00000099,0.0
 0001195,-0.00000919,-0.00000054,-0.00128116,-0.00227756,0.00015267,0.0
 0048513,-0.00036575,0.00000045,-0.00127034,0.00003822,0.00003967,-0.00
 011090,0.00000269,-0.00000349,-0.00005087,0.00040598,-0.00026247,0.000
 08406,0.00006586,-0.00002064,-0.00035351,-0.00090414,0.00145622,0.0016
 1686,0.00210715,0.00087459,-0.00826514,-0.01650768,-0.02127831,0.06248
 170,-0.17676793,-0.14405852,-0.24917497,0.31372926,-0.00002391,-0.0000
 3215,0.00000604,0.00000027,0.00000808,0.00000202,-0.00001664,-0.000036
 38,0.00001291,0.00003723,-0.00002650,-0.00001168,0.00011460,-0.0000055
 6,0.00001489,-0.00004104,-0.00010555,-0.00002712,-0.00000734,0.0000008
 3,-0.00002208,0.00001028,-0.00000571,-0.00000582,0.00000941,-0.0000021
 2,-0.00000371,0.00000221,0.00000593,-0.00000450,0.00063124,0.00044331,
 -0.00019177,-0.00016633,0.00016826,-0.00001646,0.00059388,-0.00000684,
 -0.00007066,0.00005529,0.00000051,-0.00000321,0.00063495,-0.00017019,0
 .00041335,-0.00000340,0.00002136,-0.00001273,-0.00048983,0.00073389,-0
 .00009138,-0.00037586,-0.00006379,0.00031673,-0.00598096,0.00251661,-0
 .00394309,0.00638259,-0.12987498,-0.14034227,0.17378131,0.04601447,0.2
 8811532,-0.00005325,-0.00004293,0.00000487,-0.00000297,0.00002485,-0.0
 0000007,-0.00001606,-0.00006298,0.00000711,0.00007237,-0.00007988,-0.0
 0000368,0.00015756,0.00000353,0.00000370,0.00005572,-0.00001425,-0.000
 03548,-0.00002127,0.00001100,-0.00000669,0.00001605,-0.00000999,-0.000
 00239,0.00001568,-0.00000251,-0.00000146,0.00000407,0.00001148,-0.0000
 0135,0.00018481,0.00010771,-0.00015286,-0.00030294,0.00011339,-0.00002
 284,0.00042359,0.00011866,0.00000662,0.00003766,0.00000383,-0.00000203
 ,-0.00033561,-0.00051791,0.00040142,-0.00004604,-0.00003729,0.00000162
 ,-0.00142279,0.00032888,-0.00047547,0.00056821,-0.00006275,0.00022624,
 -0.00041647,0.00148458,0.00125669,-0.00327278,-0.00302814,-0.00616479,
 -0.30558550,0.19592788,-0.17514796,0.30993997,0.00002262,-0.00000551,0
 .00000137,-0.00000089,-0.00003721,-0.00000048,-0.00003994,0.00000244,0
 .00000376,0.00003236,-0.00001509,-0.00000409,0.00001046,0.00001778,0.0
 0000117,-0.00003970,-0.00007906,-0.00001795,0.00001110,-0.00000679,-0.
 00000118,0.00000400,-0.00000029,-0.00000055,0.00000020,-0.00000212,-0.
 00000019,-0.00000632,-0.00000085,0.00000023,0.00045434,0.00053084,-0.0
 0011930,-0.00006198,-0.00005941,-0.00001878,-0.00009803,0.00017981,-0.
 00001852,-0.00001224,-0.00000035,0.00000145,-0.00007380,-0.00052605,0.
 00036967,-0.00005768,-0.00007653,0.00001493,-0.00011186,0.00075922,-0.
 00046190,-0.00061293,-0.00022002,0.00015229,-0.00027738,-0.00607633,-0
 .00374811,0.03094187,-0.02336997,0.00578837,0.16419296,-0.12027030,0.0
 8041650,-0.19427717,0.14925577,0.00000773,0.00001426,-0.00000281,0.000
 00289,0.00000713,-0.00000255,0.00002539,0.00001669,-0.00000263,-0.0000
 1204,0.00002225,0.00000428,-0.00004867,0.00000075,0.00000004,0.0000413
 6,0.00006625,-0.00004466,-0.00000182,-0.00000132,0.00000480,-0.0000040
 2,0.00000198,0.00000222,-0.00000390,0.00000145,0.00000238,0.00000169,-
 0.00000280,0.00000443,0.00000287,-0.00028949,0.00003607,0.00011363,-0.
 00005856,-0.00000140,-0.00019401,0.00000073,-0.00001177,-0.00001582,0.
 00000124,0.00000637,0.00030257,0.00013467,-0.00017712,0.00000078,0.000
 00697,0.00003210,0.00015982,-0.00003590,0.00019812,0.00046963,0.000431
 42,0.00030819,-0.00049186,-0.00631031,-0.00531634,0.03425552,-0.028831
 96,0.00470740,-0.21472053,0.11718326,-0.14413475,0.18010880,-0.0823587
 1,0.14438764\\-0.00002276,-0.00003336,0.00000993,-0.00000783,-0.000044
 68,-0.00000082,0.00000818,-0.00003541,-0.00000847,0.00000964,-0.000017
 47,-0.00001093,-0.00002158,-0.00001621,0.00001490,-0.00000600,-0.00000
 735,0.00000255,-0.00003451,-0.00000916,0.00001749,-0.00003375,-0.00004
 078,0.00001621,-0.00000754,-0.00005706,-0.00000125,0.00002071,-0.00004
 193,-0.00001648,-0.00000601,0.00001129,0.00000066,0.00002469,-0.000008
 02,-0.00001612,0.00002579,0.00000906,-0.00001648,0.00003697,-0.0000161
 1,-0.00002470,0.00001029,0.00002056,0.00000797,0.00003802,0.00001567,-
 0.00002106,0.00000979,0.00003033,-0.00000120,-0.00002058,0.00001327,0.
 00001066,0.00000205,0.00004892,0.00000023,-0.00005057,0.00008351,0.000
 04750,-0.00009126,0.00007493,-0.00004076,0.00011626,0.00002000,0.00003
 016\\\@


 AS FAR AS THE LAWS OF MATHEMATICS REFER TO REALITY,
 THEY ARE NOT CERTAIN; AND AS FAR AS THEY ARE CERTAIN,
 THEY DO NOT REFER TO REALITY.

                                         -- ALBERT EINSTEIN
 Job cpu time:       0 days  0 hours 36 minutes 46.7 seconds.
 Elapsed time:       0 days  0 hours  1 minutes 51.0 seconds.
 File lengths (MBytes):  RWF=   1408 Int=      0 D2E=      0 Chk=     32 Scr=     32
 Normal termination of Gaussian 16 at Tue Feb 26 09:13:39 2019.
