 Entering Gaussian System, Link 0=g16
 Input=rxn908-hooh.com
 Output=rxn908-hooh.log
 Initial command:
 /shared/centos7/gaussian/g16/l1.exe "/scratch/dinius.ab/QMscratch/Gau-48595.inp" -scrdir="/scratch/dinius.ab/QMscratch/"
 Default is to use a total of  20 processors:
                               20 via shared-memory
                                1 via Linda
 Entering Link 1 = /shared/centos7/gaussian/g16/l1.exe PID=     48596.
  
 Copyright (c) 1988,1990,1992,1993,1995,1998,2003,2009,2016,
            Gaussian, Inc.  All Rights Reserved.
  
 This is part of the Gaussian(R) 16 program.  It is based on
 the Gaussian(R) 09 system (copyright 2009, Gaussian, Inc.),
 the Gaussian(R) 03 system (copyright 2003, Gaussian, Inc.),
 the Gaussian(R) 98 system (copyright 1998, Gaussian, Inc.),
 the Gaussian(R) 94 system (copyright 1995, Gaussian, Inc.),
 the Gaussian 92(TM) system (copyright 1992, Gaussian, Inc.),
 the Gaussian 90(TM) system (copyright 1990, Gaussian, Inc.),
 the Gaussian 88(TM) system (copyright 1988, Gaussian, Inc.),
 the Gaussian 86(TM) system (copyright 1986, Carnegie Mellon
 University), and the Gaussian 82(TM) system (copyright 1983,
 Carnegie Mellon University). Gaussian is a federally registered
 trademark of Gaussian, Inc.
  
 This software contains proprietary and confidential information,
 including trade secrets, belonging to Gaussian, Inc.
  
 This software is provided under written license and may be
 used, copied, transmitted, or stored only in accord with that
 written license.
  
 The following legend is applicable only to US Government
 contracts under FAR:
  
                    RESTRICTED RIGHTS LEGEND
  
 Use, reproduction and disclosure by the US Government is
 subject to restrictions as set forth in subparagraphs (a)
 and (c) of the Commercial Computer Software - Restricted
 Rights clause in FAR 52.227-19.
  
 Gaussian, Inc.
 340 Quinnipiac St., Bldg. 40, Wallingford CT 06492
  
  
 ---------------------------------------------------------------
 Warning -- This program may not be used in any manner that
 competes with the business of Gaussian, Inc. or will provide
 assistance to any competitor of Gaussian, Inc.  The licensee
 of this program is prohibited from giving any competitor of
 Gaussian, Inc. access to this program.  By using this program,
 the user acknowledges that Gaussian, Inc. is engaged in the
 business of creating and licensing software in the field of
 computational chemistry and represents and warrants to the
 licensee that it is not a competitor of Gaussian, Inc. and that
 it will not use this program in any manner prohibited above.
 ---------------------------------------------------------------
  

 Cite this work as:
 Gaussian 16, Revision A.03,
 M. J. Frisch, G. W. Trucks, H. B. Schlegel, G. E. Scuseria, 
 M. A. Robb, J. R. Cheeseman, G. Scalmani, V. Barone, 
 G. A. Petersson, H. Nakatsuji, X. Li, M. Caricato, A. V. Marenich, 
 J. Bloino, B. G. Janesko, R. Gomperts, B. Mennucci, H. P. Hratchian, 
 J. V. Ortiz, A. F. Izmaylov, J. L. Sonnenberg, D. Williams-Young, 
 F. Ding, F. Lipparini, F. Egidi, J. Goings, B. Peng, A. Petrone, 
 T. Henderson, D. Ranasinghe, V. G. Zakrzewski, J. Gao, N. Rega, 
 G. Zheng, W. Liang, M. Hada, M. Ehara, K. Toyota, R. Fukuda, 
 J. Hasegawa, M. Ishida, T. Nakajima, Y. Honda, O. Kitao, H. Nakai, 
 T. Vreven, K. Throssell, J. A. Montgomery, Jr., J. E. Peralta, 
 F. Ogliaro, M. J. Bearpark, J. J. Heyd, E. N. Brothers, K. N. Kudin, 
 V. N. Staroverov, T. A. Keith, R. Kobayashi, J. Normand, 
 K. Raghavachari, A. P. Rendell, J. C. Burant, S. S. Iyengar, 
 J. Tomasi, M. Cossi, J. M. Millam, M. Klene, C. Adamo, R. Cammi, 
 J. W. Ochterski, R. L. Martin, K. Morokuma, O. Farkas, 
 J. B. Foresman, and D. J. Fox, Gaussian, Inc., Wallingford CT, 2016.
 
 ******************************************
 Gaussian 16:  EM64L-G16RevA.03 25-Dec-2016
                19-Feb-2019 
 ******************************************
 ----------------------------------------------------------------------
 # m062x/6-31+g(d,p) Opt=(Loose,maxcycle=1000,CalcFC) Int(Grid=SG1) fre
 q
 ----------------------------------------------------------------------
 1/6=1000,7=-1,10=4,18=20,19=15,26=2,38=1/1,3;
 2/9=110,12=2,17=6,18=5,40=1/2;
 3/5=1,6=6,7=111,11=2,25=1,30=1,71=2,74=-55,75=1,140=1/1,2,3;
 4//1;
 5/5=2,38=5/2;
 8/6=4,10=90,11=11/1;
 11/6=1,8=1,9=11,15=111,16=1/1,2,10;
 10/6=1,13=1/2;
 6/7=2,8=2,9=2,10=2,28=1/1;
 7/10=1,18=20,25=1/1,2,3,16;
 1/6=1000,7=-1,10=4,18=20,19=15,26=2/3(2);
 2/9=110/2;
 99//99;
 2/9=110/2;
 3/5=1,6=6,7=111,11=2,25=1,30=1,71=1,74=-55,75=1/1,2,3;
 4/5=5,16=3,69=1/1;
 5/5=2,38=5/2;
 7//1,2,3,16;
 1/6=1000,7=-1,18=20,19=15,26=2/3(-5);
 2/9=110/2;
 6/7=2,8=2,9=2,10=2,19=2,28=1/1;
 99/9=1/99;
 --------------------------
 Rxn 908 Products with HOOH
 --------------------------
 Symbolic Z-matrix:
 Charge =  0 Multiplicity = 2
 C                     1.26636   0.42428   0.70388 
 C                     0.3638   -0.61738   0.76705 
 C                     0.82353   1.6804    0.19375 
 C                    -0.46344   1.86063  -0.20719 
 H                     1.53352   2.49467   0.12833 
 C                    -0.979    -0.45816   0.36123 
 H                     0.68489  -1.58249   1.14156 
 C                    -1.4057    0.80046  -0.13566 
 H                    -0.78953   2.81883  -0.59178 
 C                    -1.91612  -1.51867   0.43446 
 C                    -3.20909  -1.33695   0.03197 
 H                    -1.58714  -2.47676   0.81676 
 C                    -3.63118  -0.08427  -0.46534 
 H                    -3.91484  -2.15363   0.0921 
 C                    -2.7489    0.95833  -0.54507 
 H                    -3.06717   1.91949  -0.92879 
 H                    -4.65484   0.04477  -0.78765 
 C                     2.65815   0.24161   1.07192 
 H                     3.85683  -0.09348  -0.41943 
 H                     2.88105  -0.62993   1.6801 
 H                     3.1938    1.13442   1.38227 
 O                     4.36339  -0.41493  -1.25905 
 O                     3.69439  -1.5015   -1.82384 
 H                     4.25969  -2.24721  -1.5914 
 
 Add virtual bond connecting atoms H19        and C18        Dist= 3.67D+00.

 GradGradGradGradGradGradGradGradGradGradGradGradGradGradGradGradGradGrad
 Berny optimization.
 Initialization pass.
                           ----------------------------
                           !    Initial Parameters    !
                           ! (Angstroms and Degrees)  !
 --------------------------                            --------------------------
 ! Name  Definition              Value          Derivative Info.                !
 --------------------------------------------------------------------------------
 ! R1    R(1,2)                  1.3797         calculate D2E/DX2 analytically  !
 ! R2    R(1,3)                  1.4262         calculate D2E/DX2 analytically  !
 ! R3    R(1,18)                 1.4512         calculate D2E/DX2 analytically  !
 ! R4    R(2,6)                  1.4118         calculate D2E/DX2 analytically  !
 ! R5    R(2,7)                  1.0839         calculate D2E/DX2 analytically  !
 ! R6    R(3,4)                  1.36           calculate D2E/DX2 analytically  !
 ! R7    R(3,5)                  1.0823         calculate D2E/DX2 analytically  !
 ! R8    R(4,8)                  1.4202         calculate D2E/DX2 analytically  !
 ! R9    R(4,9)                  1.0828         calculate D2E/DX2 analytically  !
 ! R10   R(6,8)                  1.4188         calculate D2E/DX2 analytically  !
 ! R11   R(6,10)                 1.4171         calculate D2E/DX2 analytically  !
 ! R12   R(8,15)                 1.4131         calculate D2E/DX2 analytically  !
 ! R13   R(10,11)                1.3663         calculate D2E/DX2 analytically  !
 ! R14   R(10,12)                1.0827         calculate D2E/DX2 analytically  !
 ! R15   R(11,13)                1.4123         calculate D2E/DX2 analytically  !
 ! R16   R(11,14)                1.081          calculate D2E/DX2 analytically  !
 ! R17   R(13,15)                1.3681         calculate D2E/DX2 analytically  !
 ! R18   R(13,17)                1.0809         calculate D2E/DX2 analytically  !
 ! R19   R(15,16)                1.0828         calculate D2E/DX2 analytically  !
 ! R20   R(18,19)                1.9425         calculate D2E/DX2 analytically  !
 ! R21   R(18,20)                1.0859         calculate D2E/DX2 analytically  !
 ! R22   R(18,21)                1.0864         calculate D2E/DX2 analytically  !
 ! R23   R(19,22)                1.0319         calculate D2E/DX2 analytically  !
 ! R24   R(22,23)                1.3954         calculate D2E/DX2 analytically  !
 ! R25   R(23,24)                0.9642         calculate D2E/DX2 analytically  !
 ! A1    A(2,1,3)              118.5671         calculate D2E/DX2 analytically  !
 ! A2    A(2,1,18)             121.382          calculate D2E/DX2 analytically  !
 ! A3    A(3,1,18)             119.9574         calculate D2E/DX2 analytically  !
 ! A4    A(1,2,6)              121.5931         calculate D2E/DX2 analytically  !
 ! A5    A(1,2,7)              119.622          calculate D2E/DX2 analytically  !
 ! A6    A(6,2,7)              118.7839         calculate D2E/DX2 analytically  !
 ! A7    A(1,3,4)              121.0633         calculate D2E/DX2 analytically  !
 ! A8    A(1,3,5)              118.721          calculate D2E/DX2 analytically  !
 ! A9    A(4,3,5)              120.2156         calculate D2E/DX2 analytically  !
 ! A10   A(3,4,8)              120.9361         calculate D2E/DX2 analytically  !
 ! A11   A(3,4,9)              120.4635         calculate D2E/DX2 analytically  !
 ! A12   A(8,4,9)              118.6001         calculate D2E/DX2 analytically  !
 ! A13   A(2,6,8)              119.1275         calculate D2E/DX2 analytically  !
 ! A14   A(2,6,10)             121.9862         calculate D2E/DX2 analytically  !
 ! A15   A(8,6,10)             118.8863         calculate D2E/DX2 analytically  !
 ! A16   A(4,8,6)              118.7057         calculate D2E/DX2 analytically  !
 ! A17   A(4,8,15)             122.1869         calculate D2E/DX2 analytically  !
 ! A18   A(6,8,15)             119.1073         calculate D2E/DX2 analytically  !
 ! A19   A(6,10,11)            120.7328         calculate D2E/DX2 analytically  !
 ! A20   A(6,10,12)            118.6543         calculate D2E/DX2 analytically  !
 ! A21   A(11,10,12)           120.6129         calculate D2E/DX2 analytically  !
 ! A22   A(10,11,13)           120.2991         calculate D2E/DX2 analytically  !
 ! A23   A(10,11,14)           120.062          calculate D2E/DX2 analytically  !
 ! A24   A(13,11,14)           119.6389         calculate D2E/DX2 analytically  !
 ! A25   A(11,13,15)           120.2456         calculate D2E/DX2 analytically  !
 ! A26   A(11,13,17)           119.5974         calculate D2E/DX2 analytically  !
 ! A27   A(15,13,17)           120.1562         calculate D2E/DX2 analytically  !
 ! A28   A(8,15,13)            120.7288         calculate D2E/DX2 analytically  !
 ! A29   A(8,15,16)            118.7682         calculate D2E/DX2 analytically  !
 ! A30   A(13,15,16)           120.5023         calculate D2E/DX2 analytically  !
 ! A31   A(1,18,19)            114.7611         calculate D2E/DX2 analytically  !
 ! A32   A(1,18,20)            116.1004         calculate D2E/DX2 analytically  !
 ! A33   A(1,18,21)            116.2228         calculate D2E/DX2 analytically  !
 ! A34   A(19,18,20)            99.4901         calculate D2E/DX2 analytically  !
 ! A35   A(19,18,21)            93.258          calculate D2E/DX2 analytically  !
 ! A36   A(20,18,21)           113.4762         calculate D2E/DX2 analytically  !
 ! A37   A(19,22,23)           109.6657         calculate D2E/DX2 analytically  !
 ! A38   A(22,23,24)           102.9187         calculate D2E/DX2 analytically  !
 ! A39   L(18,19,22,16,-1)     174.1697         calculate D2E/DX2 analytically  !
 ! A40   L(18,19,22,16,-2)     191.2516         calculate D2E/DX2 analytically  !
 ! D1    D(3,1,2,6)             -1.033          calculate D2E/DX2 analytically  !
 ! D2    D(3,1,2,7)            179.326          calculate D2E/DX2 analytically  !
 ! D3    D(18,1,2,6)          -177.5166         calculate D2E/DX2 analytically  !
 ! D4    D(18,1,2,7)             2.8424         calculate D2E/DX2 analytically  !
 ! D5    D(2,1,3,4)              0.8616         calculate D2E/DX2 analytically  !
 ! D6    D(2,1,3,5)           -179.036          calculate D2E/DX2 analytically  !
 ! D7    D(18,1,3,4)           177.3967         calculate D2E/DX2 analytically  !
 ! D8    D(18,1,3,5)            -2.5009         calculate D2E/DX2 analytically  !
 ! D9    D(2,1,18,19)           96.7025         calculate D2E/DX2 analytically  !
 ! D10   D(2,1,18,20)          -18.6479         calculate D2E/DX2 analytically  !
 ! D11   D(2,1,18,21)         -156.0228         calculate D2E/DX2 analytically  !
 ! D12   D(3,1,18,19)          -79.7329         calculate D2E/DX2 analytically  !
 ! D13   D(3,1,18,20)          164.9168         calculate D2E/DX2 analytically  !
 ! D14   D(3,1,18,21)           27.5418         calculate D2E/DX2 analytically  !
 ! D15   D(1,2,6,8)              0.629          calculate D2E/DX2 analytically  !
 ! D16   D(1,2,6,10)          -179.3887         calculate D2E/DX2 analytically  !
 ! D17   D(7,2,6,8)           -179.7271         calculate D2E/DX2 analytically  !
 ! D18   D(7,2,6,10)             0.2552         calculate D2E/DX2 analytically  !
 ! D19   D(1,3,4,8)             -0.2817         calculate D2E/DX2 analytically  !
 ! D20   D(1,3,4,9)            179.9198         calculate D2E/DX2 analytically  !
 ! D21   D(5,3,4,8)            179.6145         calculate D2E/DX2 analytically  !
 ! D22   D(5,3,4,9)             -0.1841         calculate D2E/DX2 analytically  !
 ! D23   D(3,4,8,6)             -0.1359         calculate D2E/DX2 analytically  !
 ! D24   D(3,4,8,15)          -179.9906         calculate D2E/DX2 analytically  !
 ! D25   D(9,4,8,6)            179.6663         calculate D2E/DX2 analytically  !
 ! D26   D(9,4,8,15)            -0.1884         calculate D2E/DX2 analytically  !
 ! D27   D(2,6,8,4)             -0.0269         calculate D2E/DX2 analytically  !
 ! D28   D(2,6,8,15)           179.8324         calculate D2E/DX2 analytically  !
 ! D29   D(10,6,8,4)           179.9903         calculate D2E/DX2 analytically  !
 ! D30   D(10,6,8,15)           -0.1504         calculate D2E/DX2 analytically  !
 ! D31   D(2,6,10,11)         -179.8604         calculate D2E/DX2 analytically  !
 ! D32   D(2,6,10,12)            0.1824         calculate D2E/DX2 analytically  !
 ! D33   D(8,6,10,11)            0.1219         calculate D2E/DX2 analytically  !
 ! D34   D(8,6,10,12)         -179.8353         calculate D2E/DX2 analytically  !
 ! D35   D(4,8,15,13)          179.8854         calculate D2E/DX2 analytically  !
 ! D36   D(4,8,15,16)            0.2069         calculate D2E/DX2 analytically  !
 ! D37   D(6,8,15,13)            0.0312         calculate D2E/DX2 analytically  !
 ! D38   D(6,8,15,16)         -179.6473         calculate D2E/DX2 analytically  !
 ! D39   D(6,10,11,13)           0.027          calculate D2E/DX2 analytically  !
 ! D40   D(6,10,11,14)         179.9699         calculate D2E/DX2 analytically  !
 ! D41   D(12,10,11,13)        179.9834         calculate D2E/DX2 analytically  !
 ! D42   D(12,10,11,14)         -0.0737         calculate D2E/DX2 analytically  !
 ! D43   D(10,11,13,15)         -0.1498         calculate D2E/DX2 analytically  !
 ! D44   D(10,11,13,17)        179.537          calculate D2E/DX2 analytically  !
 ! D45   D(14,11,13,15)        179.9071         calculate D2E/DX2 analytically  !
 ! D46   D(14,11,13,17)         -0.4061         calculate D2E/DX2 analytically  !
 ! D47   D(11,13,15,8)           0.1191         calculate D2E/DX2 analytically  !
 ! D48   D(11,13,15,16)        179.792          calculate D2E/DX2 analytically  !
 ! D49   D(17,13,15,8)        -179.5659         calculate D2E/DX2 analytically  !
 ! D50   D(17,13,15,16)          0.107          calculate D2E/DX2 analytically  !
 ! D51   D(1,18,22,23)         -52.7794         calculate D2E/DX2 analytically  !
 ! D52   D(20,18,22,23)         69.9689         calculate D2E/DX2 analytically  !
 ! D53   D(21,18,22,23)       -174.9543         calculate D2E/DX2 analytically  !
 ! D54   D(19,22,23,24)       -106.2823         calculate D2E/DX2 analytically  !
 --------------------------------------------------------------------------------
 Trust Radius=3.00D-01 FncErr=1.00D-05 GrdErr=1.00D-04 EigMax=2.50D+02 EigMin=1.00D-04
 Number of steps in this run=    144 maximum allowed number of steps=    144.
 GradGradGradGradGradGradGradGradGradGradGradGradGradGradGradGradGradGrad

                          Input orientation:                          
 ---------------------------------------------------------------------
 Center     Atomic      Atomic             Coordinates (Angstroms)
 Number     Number       Type             X           Y           Z
 ---------------------------------------------------------------------
      1          6           0        1.266360    0.424280    0.703880
      2          6           0        0.363800   -0.617380    0.767050
      3          6           0        0.823530    1.680400    0.193750
      4          6           0       -0.463440    1.860630   -0.207190
      5          1           0        1.533520    2.494670    0.128330
      6          6           0       -0.979000   -0.458160    0.361230
      7          1           0        0.684890   -1.582490    1.141560
      8          6           0       -1.405700    0.800460   -0.135660
      9          1           0       -0.789530    2.818830   -0.591780
     10          6           0       -1.916120   -1.518670    0.434460
     11          6           0       -3.209090   -1.336950    0.031970
     12          1           0       -1.587140   -2.476760    0.816760
     13          6           0       -3.631180   -0.084270   -0.465340
     14          1           0       -3.914840   -2.153630    0.092100
     15          6           0       -2.748900    0.958330   -0.545070
     16          1           0       -3.067170    1.919490   -0.928790
     17          1           0       -4.654840    0.044770   -0.787650
     18          6           0        2.658150    0.241610    1.071920
     19          1           0        3.856830   -0.093480   -0.419430
     20          1           0        2.881050   -0.629930    1.680100
     21          1           0        3.193800    1.134420    1.382270
     22          8           0        4.363390   -0.414930   -1.259050
     23          8           0        3.694390   -1.501500   -1.823840
     24          1           0        4.259690   -2.247210   -1.591400
 ---------------------------------------------------------------------
                    Distance matrix (angstroms):
                    1          2          3          4          5
     1  C    0.000000
     2  C    1.379732   0.000000
     3  C    1.426243   2.412430   0.000000
     4  C    2.425976   2.788190   1.359973   0.000000
     5  H    2.165444   3.385419   1.082313   2.121893   0.000000
     6  C    2.436750   1.411791   2.801893   2.442476   3.884096
     7  H    2.134666   1.083879   3.400591   3.872062   4.286029
     8  C    2.825994   2.440550   2.419147   1.420187   3.402801
     9  H    3.411640   3.870934   2.124863   1.082770   2.453609
    10  C    3.738425   2.474060   4.218729   3.733854   5.301003
    11  C    4.856238   3.718019   5.039107   4.221411   6.097782
    12  H    4.070778   2.695539   4.845766   4.596099   5.909955
    13  C    5.060790   4.214600   4.836621   3.726104   5.803232
    14  H    5.819341   4.595909   6.096086   5.302454   7.161887
    15  C    4.238797   3.727388   3.718803   2.480249   4.599231
    16  H    4.866287   4.591638   4.056452   2.702514   4.755490
    17  H    6.117949   5.295496   5.800946   4.604575   6.718395
    18  C    1.451172   2.468775   2.491411   3.741881   2.689133
    19  H    2.870616   3.726052   3.567008   4.746401   3.520842
    20  H    2.161386   2.677754   3.432237   4.577157   3.739913
    21  H    2.163224   3.384701   2.707186   4.053291   2.485795
    22  O    3.761511   4.488072   4.362527   5.439014   4.289378
    23  O    3.999166   4.311289   4.736770   5.586146   4.944664
    24  H    4.622250   4.837002   5.515440   6.410799   5.733664
                    6          7          8          9         10
     6  C    0.000000
     7  H    2.154429   0.000000
     8  C    1.418836   3.417647   0.000000
     9  H    3.418010   4.954796   2.159057   0.000000
    10  C    1.417123   2.696167   2.442116   4.597421   0.000000
    11  C    2.419501   4.056422   2.801578   4.849107   1.366306
    12  H    2.156870   2.463196   3.417630   5.537458   1.082736
    13  C    2.803047   4.843062   2.417477   4.064351   2.410098
    14  H    3.400913   4.752377   3.882564   5.912750   2.124916
    15  C    2.441387   4.592538   1.413055   2.702364   2.790794
    16  H    3.417283   5.534272   2.154476   2.471848   3.873540
    17  H    3.883898   5.906144   3.398981   4.761764   3.382083
    18  C    3.771421   2.688112   4.276148   4.614809   4.942559
    19  H    4.911993   3.836019   5.345454   5.486339   6.007266
    20  H    4.082758   2.453674   4.870239   5.525264   5.035307
    21  H    4.581604   3.705964   4.855002   4.754054   5.835110
    22  O    5.582858   4.545051   6.001798   6.120052   6.596853
    23  O    5.263427   4.225784   5.844646   6.347343   6.047978
    24  H    5.870037   4.548639   6.595765   7.222093   6.540299
                   11         12         13         14         15
    11  C    0.000000
    12  H    2.132084   0.000000
    13  C    1.412333   3.397924   0.000000
    14  H    1.081048   2.459214   2.161817   0.000000
    15  C    2.411029   3.873514   1.368134   3.383740   0.000000
    16  H    3.398176   4.956253   2.132592   4.283815   1.082758
    17  H    2.161277   4.282876   1.080932   2.480831   2.127450
    18  C    6.164240   5.047487   6.482672   7.064094   5.688984
    19  H    7.188686   6.070008   7.488156   8.056348   6.690124
    20  H    6.348702   4.911299   6.878212   7.143355   6.258617
    21  H    6.994854   6.018123   7.174902   7.937794   6.249906
    22  O    7.736880   6.630908   8.040675   8.566083   7.278755
    23  O    7.150465   5.984853   7.584065   7.873784   7.014414
    24  H    7.697180   6.327507   8.259065   8.346608   7.777572
                   16         17         18         19         20
    16  H    0.000000
    17  H    2.460730   0.000000
    18  C    6.292647   7.548283   0.000000
    19  H    7.228642   8.520753   1.942484   0.000000
    20  H    6.977619   7.958307   1.085886   2.376542   0.000000
    21  H    6.719902   8.215658   1.086438   2.278919   1.816438
    22  O    7.795628   9.042235   2.961808   1.031937   3.298812
    23  O    7.630398   8.554197   3.535202   1.995313   3.701182
    24  H    8.454781   9.239482   3.981511   2.484827   3.901148
                   21         22         23         24
    21  H    0.000000
    22  O    3.277956   0.000000
    23  O    4.180647   1.395415   0.000000
    24  H    4.627554   1.865063   0.964197   0.000000
 Stoichiometry    C11H11O2(2)
 Framework group  C1[X(C11H11O2)]
 Deg. of freedom    66
 Full point group                 C1      NOp   1
 Largest Abelian subgroup         C1      NOp   1
 Largest concise Abelian subgroup C1      NOp   1
                         Standard orientation:                         
 ---------------------------------------------------------------------
 Center     Atomic      Atomic             Coordinates (Angstroms)
 Number     Number       Type             X           Y           Z
 ---------------------------------------------------------------------
      1          6           0        1.041435    0.667566    0.816631
      2          6           0        0.191537   -0.407451    0.976856
      3          6           0        0.581390    1.796197    0.075875
      4          6           0       -0.672740    1.827123   -0.449225
      5          1           0        1.251605    2.634304   -0.064798
      6          6           0       -1.116621   -0.401619    0.445968
      7          1           0        0.527493   -1.278598    1.527339
      8          6           0       -1.561917    0.732608   -0.280900
      9          1           0       -1.012425    2.689548   -1.008893
     10          6           0       -2.000817   -1.495867    0.616425
     11          6           0       -3.260855   -1.464107    0.089086
     12          1           0       -1.658061   -2.358357    1.174052
     13          6           0       -3.701223   -0.335500   -0.636867
     14          1           0       -3.926262   -2.305147    0.225282
     15          6           0       -2.870086    0.736519   -0.815131
     16          1           0       -3.202221    1.602505   -1.373808
     17          1           0       -4.697726   -0.325543   -1.055552
     18          6           0        2.402865    0.635851    1.318033
     19          1           0        3.744079    0.148407    0.000161
     20          1           0        2.615719   -0.112641    2.075398
     21          1           0        2.862462    1.599256    1.520444
     22          8           0        4.338587   -0.267792   -0.733483
     23          8           0        3.778741   -1.470868   -1.165181
     24          1           0        4.358893   -2.132370   -0.770826
 ---------------------------------------------------------------------
 Rotational constants (GHZ):           1.4815085           0.3840949           0.3510052
 Standard basis: 6-31+G(d,p) (6D, 7F)
 There are   302 symmetry adapted cartesian basis functions of A   symmetry.
 There are   302 symmetry adapted basis functions of A   symmetry.
   302 basis functions,   493 primitive gaussians,   302 cartesian basis functions
    47 alpha electrons       46 beta electrons
       nuclear repulsion energy       707.0365965637 Hartrees.
 NAtoms=   24 NActive=   24 NUniq=   24 SFac= 1.00D+00 NAtFMM=   60 NAOKFM=F Big=F
 Integral buffers will be    131072 words long.
 Raffenetti 2 integral format.
 Two-electron integral symmetry is turned on.
 One-electron integrals computed using PRISM.
 NBasis=   302 RedAO= T EigKep=  1.73D-06  NBF=   302
 NBsUse=   300 1.00D-06 EigRej=  9.94D-07 NBFU=   300
 ExpMin= 4.38D-02 ExpMax= 5.48D+03 ExpMxC= 8.25D+02 IAcc=2 IRadAn=         4 AccDes= 0.00D+00
 Harris functional with IExCor= 1009 and IRadAn=       4 diagonalized for initial guess.
 HarFok:  IExCor= 1009 AccDes= 0.00D+00 IRadAn=         4 IDoV= 1 UseB2=F ITyADJ=14
 ICtDFT=  3500011 ScaDFX=  1.000000  1.000000  1.000000  1.000000
 FoFCou: FMM=F IPFlag=           0 FMFlag=      100000 FMFlg1=           0
         NFxFlg=           0 DoJE=T BraDBF=F KetDBF=T FulRan=T
         wScrn=  0.000000 ICntrl=       500 IOpCl=  0 I1Cent=   200000004 NGrid=           0
         NMat0=    1 NMatS0=      1 NMatT0=    0 NMatD0=    1 NMtDS0=    0 NMtDT0=    0
 Petite list used in FoFCou.
 Initial guess <Sx>= 0.0000 <Sy>= 0.0000 <Sz>= 0.5000 <S**2>= 0.7500 S= 0.5000
 Requested convergence on RMS density matrix=1.00D-08 within 128 cycles.
 Requested convergence on MAX density matrix=1.00D-06.
 Requested convergence on             energy=1.00D-06.
 No special actions if energy rises.
 SCF Done:  E(UM062X) =  -575.868129088     A.U. after   20 cycles
            NFock= 20  Conv=0.73D-08     -V/T= 2.0084
 <Sx>= 0.0000 <Sy>= 0.0000 <Sz>= 0.5000 <S**2>= 0.7752 S= 0.5125
 <L.S>= 0.000000000000E+00
 Annihilation of the first spin contaminant:
 S**2 before annihilation     0.7752,   after     0.7504
 DoSCS=F DFT=T ScalE2(SS,OS)=  1.000000  1.000000
 Range of M.O.s used for correlation:     1   300
 NBasis=   302 NAE=    47 NBE=    46 NFC=     0 NFV=     0
 NROrb=    300 NOA=    47 NOB=    46 NVA=   253 NVB=   254

 **** Warning!!: The largest alpha MO coefficient is  0.13370952D+03


 **** Warning!!: The largest beta MO coefficient is  0.14039472D+03

 Symmetrizing basis deriv contribution to polar:
 IMax=3 JMax=2 DiffMx= 0.00D+00
 G2DrvN: will do    25 centers at a time, making    1 passes.
 Calling FoFCou, ICntrl=  3107 FMM=F I1Cent=   0 AccDes= 0.00D+00.
 End of G2Drv F.D. properties file   721 does not exist.
 End of G2Drv F.D. properties file   722 does not exist.
 End of G2Drv F.D. properties file   788 does not exist.
          IDoAtm=111111111111111111111111
          Differentiating once with respect to nuclear coordinates.
 Keep R1 and R2 ints in memory in canonical form, NReq=2115998067.
          There are    75 degrees of freedom in the 1st order CPHF.  IDoFFX=6 NUNeed=     0.
     69 vectors produced by pass  0 Test12= 3.14D-14 1.33D-09 XBig12= 3.61D-01 1.42D-01.
 AX will form    69 AO Fock derivatives at one time.
     69 vectors produced by pass  1 Test12= 3.14D-14 1.33D-09 XBig12= 3.80D-02 4.14D-02.
     69 vectors produced by pass  2 Test12= 3.14D-14 1.33D-09 XBig12= 2.84D-03 9.30D-03.
     69 vectors produced by pass  3 Test12= 3.14D-14 1.33D-09 XBig12= 8.20D-05 1.95D-03.
     69 vectors produced by pass  4 Test12= 3.14D-14 1.33D-09 XBig12= 1.22D-06 1.53D-04.
     69 vectors produced by pass  5 Test12= 3.14D-14 1.33D-09 XBig12= 1.08D-08 6.71D-06.
     69 vectors produced by pass  6 Test12= 3.14D-14 1.33D-09 XBig12= 8.48D-11 7.76D-07.
     39 vectors produced by pass  7 Test12= 3.14D-14 1.33D-09 XBig12= 5.89D-13 5.63D-08.
      3 vectors produced by pass  8 Test12= 3.14D-14 1.33D-09 XBig12= 4.01D-15 4.67D-09.
      1 vectors produced by pass  9 Test12= 3.14D-14 1.33D-09 XBig12= 3.98D-16 1.52D-09.
 InvSVY:  IOpt=1 It=  1 EMax= 1.55D-15
 Solved reduced A of dimension   526 with    75 vectors.
 End of Minotr F.D. properties file   721 does not exist.
 End of Minotr F.D. properties file   722 does not exist.
 End of Minotr F.D. properties file   788 does not exist.

 **********************************************************************

            Population analysis using the SCF density.

 **********************************************************************

 Orbital symmetries:
 Alpha Orbitals:
       Occupied  (A) (A) (A) (A) (A) (A) (A) (A) (A) (A) (A) (A)
                 (A) (A) (A) (A) (A) (A) (A) (A) (A) (A) (A) (A)
                 (A) (A) (A) (A) (A) (A) (A) (A) (A) (A) (A) (A)
                 (A) (A) (A) (A) (A) (A) (A) (A) (A) (A) (A)
       Virtual   (A) (A) (A) (A) (A) (A) (A) (A) (A) (A) (A) (A)
                 (A) (A) (A) (A) (A) (A) (A) (A) (A) (A) (A) (A)
                 (A) (A) (A) (A) (A) (A) (A) (A) (A) (A) (A) (A)
                 (A) (A) (A) (A) (A) (A) (A) (A) (A) (A) (A) (A)
                 (A) (A) (A) (A) (A) (A) (A) (A) (A) (A) (A) (A)
                 (A) (A) (A) (A) (A) (A) (A) (A) (A) (A) (A) (A)
                 (A) (A) (A) (A) (A) (A) (A) (A) (A) (A) (A) (A)
                 (A) (A) (A) (A) (A) (A) (A) (A) (A) (A) (A) (A)
                 (A) (A) (A) (A) (A) (A) (A) (A) (A) (A) (A) (A)
                 (A) (A) (A) (A) (A) (A) (A) (A) (A) (A) (A) (A)
                 (A) (A) (A) (A) (A) (A) (A) (A) (A) (A) (A) (A)
                 (A) (A) (A) (A) (A) (A) (A) (A) (A) (A) (A) (A)
                 (A) (A) (A) (A) (A) (A) (A) (A) (A) (A) (A) (A)
                 (A) (A) (A) (A) (A) (A) (A) (A) (A) (A) (A) (A)
                 (A) (A) (A) (A) (A) (A) (A) (A) (A) (A) (A) (A)
                 (A) (A) (A) (A) (A) (A) (A) (A) (A) (A) (A) (A)
                 (A) (A) (A) (A) (A) (A) (A) (A) (A) (A) (A) (A)
                 (A) (A) (A) (A) (A) (A) (A) (A) (A) (A) (A) (A)
                 (A) (A) (A) (A) (A) (A) (A) (A) (A) (A) (A) (A)
                 (A) (A) (A) (A) (A) (A) (A) (A) (A) (A) (A) (A)
                 (A) (A) (A) (A) (A) (A) (A) (A) (A) (A) (A) (A)
                 (A)
 Beta  Orbitals:
       Occupied  (A) (A) (A) (A) (A) (A) (A) (A) (A) (A) (A) (A)
                 (A) (A) (A) (A) (A) (A) (A) (A) (A) (A) (A) (A)
                 (A) (A) (A) (A) (A) (A) (A) (A) (A) (A) (A) (A)
                 (A) (A) (A) (A) (A) (A) (A) (A) (A) (A)
       Virtual   (A) (A) (A) (A) (A) (A) (A) (A) (A) (A) (A) (A)
                 (A) (A) (A) (A) (A) (A) (A) (A) (A) (A) (A) (A)
                 (A) (A) (A) (A) (A) (A) (A) (A) (A) (A) (A) (A)
                 (A) (A) (A) (A) (A) (A) (A) (A) (A) (A) (A) (A)
                 (A) (A) (A) (A) (A) (A) (A) (A) (A) (A) (A) (A)
                 (A) (A) (A) (A) (A) (A) (A) (A) (A) (A) (A) (A)
                 (A) (A) (A) (A) (A) (A) (A) (A) (A) (A) (A) (A)
                 (A) (A) (A) (A) (A) (A) (A) (A) (A) (A) (A) (A)
                 (A) (A) (A) (A) (A) (A) (A) (A) (A) (A) (A) (A)
                 (A) (A) (A) (A) (A) (A) (A) (A) (A) (A) (A) (A)
                 (A) (A) (A) (A) (A) (A) (A) (A) (A) (A) (A) (A)
                 (A) (A) (A) (A) (A) (A) (A) (A) (A) (A) (A) (A)
                 (A) (A) (A) (A) (A) (A) (A) (A) (A) (A) (A) (A)
                 (A) (A) (A) (A) (A) (A) (A) (A) (A) (A) (A) (A)
                 (A) (A) (A) (A) (A) (A) (A) (A) (A) (A) (A) (A)
                 (A) (A) (A) (A) (A) (A) (A) (A) (A) (A) (A) (A)
                 (A) (A) (A) (A) (A) (A) (A) (A) (A) (A) (A) (A)
                 (A) (A) (A) (A) (A) (A) (A) (A) (A) (A) (A) (A)
                 (A) (A) (A) (A) (A) (A) (A) (A) (A) (A) (A) (A)
                 (A) (A) (A) (A) (A) (A) (A) (A) (A) (A) (A) (A)
                 (A) (A) (A) (A) (A) (A) (A) (A) (A) (A) (A) (A)
                 (A) (A)
 The electronic state is 2-A.
 Alpha  occ. eigenvalues --  -19.69347 -19.68625 -10.57963 -10.57738 -10.57351
 Alpha  occ. eigenvalues --  -10.57229 -10.57092 -10.56582 -10.56556 -10.56533
 Alpha  occ. eigenvalues --  -10.56478 -10.56390 -10.56337  -1.25144  -0.99898
 Alpha  occ. eigenvalues --   -0.98583  -0.94692  -0.89104  -0.87037  -0.83406
 Alpha  occ. eigenvalues --   -0.78631  -0.71909  -0.69410  -0.68978  -0.61597
 Alpha  occ. eigenvalues --   -0.60334  -0.59475  -0.57196  -0.56200  -0.53249
 Alpha  occ. eigenvalues --   -0.52688  -0.50467  -0.49774  -0.49475  -0.48375
 Alpha  occ. eigenvalues --   -0.47680  -0.47136  -0.43783  -0.42383  -0.40923
 Alpha  occ. eigenvalues --   -0.39815  -0.37704  -0.36379  -0.35185  -0.33638
 Alpha  occ. eigenvalues --   -0.29078  -0.25292
 Alpha virt. eigenvalues --   -0.02085   0.00901   0.01333   0.01776   0.02108
 Alpha virt. eigenvalues --    0.02926   0.03472   0.03673   0.05295   0.05695
 Alpha virt. eigenvalues --    0.06544   0.06908   0.07367   0.07635   0.08317
 Alpha virt. eigenvalues --    0.08903   0.09408   0.10602   0.11142   0.12144
 Alpha virt. eigenvalues --    0.12740   0.12898   0.13864   0.13949   0.14622
 Alpha virt. eigenvalues --    0.14844   0.15219   0.16357   0.17299   0.17715
 Alpha virt. eigenvalues --    0.18032   0.18515   0.19138   0.19965   0.20286
 Alpha virt. eigenvalues --    0.20583   0.20997   0.21206   0.21936   0.22023
 Alpha virt. eigenvalues --    0.22507   0.22546   0.22742   0.23857   0.24700
 Alpha virt. eigenvalues --    0.25315   0.25855   0.25938   0.26389   0.26932
 Alpha virt. eigenvalues --    0.27262   0.27931   0.28620   0.28894   0.29511
 Alpha virt. eigenvalues --    0.29833   0.30279   0.30889   0.31661   0.32133
 Alpha virt. eigenvalues --    0.32531   0.33453   0.34365   0.34547   0.35714
 Alpha virt. eigenvalues --    0.37439   0.37640   0.38994   0.39750   0.40547
 Alpha virt. eigenvalues --    0.41437   0.42514   0.45953   0.47509   0.49028
 Alpha virt. eigenvalues --    0.57496   0.58226   0.62621   0.68555   0.69866
 Alpha virt. eigenvalues --    0.70181   0.71121   0.73019   0.73776   0.75316
 Alpha virt. eigenvalues --    0.76197   0.76589   0.77374   0.77694   0.78518
 Alpha virt. eigenvalues --    0.80284   0.80450   0.81189   0.81542   0.82165
 Alpha virt. eigenvalues --    0.82749   0.84191   0.85636   0.87275   0.88262
 Alpha virt. eigenvalues --    0.91742   0.92876   0.93235   0.95189   0.96476
 Alpha virt. eigenvalues --    0.97961   0.99363   1.01604   1.04261   1.04912
 Alpha virt. eigenvalues --    1.05474   1.07044   1.10569   1.11779   1.12432
 Alpha virt. eigenvalues --    1.13137   1.14682   1.15741   1.17014   1.19134
 Alpha virt. eigenvalues --    1.19449   1.19914   1.21187   1.23117   1.23978
 Alpha virt. eigenvalues --    1.24419   1.26573   1.27708   1.28640   1.29482
 Alpha virt. eigenvalues --    1.31234   1.31719   1.34270   1.35085   1.36386
 Alpha virt. eigenvalues --    1.38719   1.39624   1.39831   1.42411   1.43425
 Alpha virt. eigenvalues --    1.45435   1.46146   1.47805   1.48779   1.49734
 Alpha virt. eigenvalues --    1.51124   1.52407   1.54593   1.59315   1.63219
 Alpha virt. eigenvalues --    1.68593   1.69702   1.74294   1.78124   1.79819
 Alpha virt. eigenvalues --    1.83426   1.84337   1.85426   1.85665   1.89927
 Alpha virt. eigenvalues --    1.92321   1.92978   1.94624   1.96534   1.97298
 Alpha virt. eigenvalues --    1.98550   1.99528   2.00290   2.04048   2.04906
 Alpha virt. eigenvalues --    2.05850   2.07056   2.08486   2.09542   2.13522
 Alpha virt. eigenvalues --    2.15491   2.16413   2.17769   2.22338   2.23302
 Alpha virt. eigenvalues --    2.24466   2.27297   2.27686   2.30891   2.32352
 Alpha virt. eigenvalues --    2.33206   2.35476   2.38200   2.39458   2.40734
 Alpha virt. eigenvalues --    2.41483   2.43073   2.43758   2.46271   2.48455
 Alpha virt. eigenvalues --    2.49808   2.50799   2.51340   2.54532   2.55234
 Alpha virt. eigenvalues --    2.56176   2.59605   2.60456   2.61257   2.62025
 Alpha virt. eigenvalues --    2.62294   2.63284   2.64299   2.66437   2.71535
 Alpha virt. eigenvalues --    2.73015   2.73536   2.74140   2.76663   2.79482
 Alpha virt. eigenvalues --    2.81067   2.83483   2.85923   2.87674   2.90879
 Alpha virt. eigenvalues --    2.94917   2.99146   3.03347   3.10504   3.11832
 Alpha virt. eigenvalues --    3.15554   3.19069   3.24001   3.26297   3.27747
 Alpha virt. eigenvalues --    3.29650   3.35298   3.38506   3.44955   3.47698
 Alpha virt. eigenvalues --    3.49658   3.50443   3.52529   3.75434   3.89098
 Alpha virt. eigenvalues --    4.03949   4.28776   4.32638   4.34041   4.35366
 Alpha virt. eigenvalues --    4.37730   4.38579   4.44667   4.47286   4.53379
 Alpha virt. eigenvalues --    4.56556   4.71697   4.95249
  Beta  occ. eigenvalues --  -19.69342 -19.68463 -10.57856 -10.57368 -10.57312
  Beta  occ. eigenvalues --  -10.57244 -10.56915 -10.56581 -10.56516 -10.56495
  Beta  occ. eigenvalues --  -10.56465 -10.56411 -10.56355  -1.24891  -0.99727
  Beta  occ. eigenvalues --   -0.98219  -0.94419  -0.88858  -0.86499  -0.83205
  Beta  occ. eigenvalues --   -0.77002  -0.71753  -0.69275  -0.68375  -0.61283
  Beta  occ. eigenvalues --   -0.60154  -0.59289  -0.56821  -0.55693  -0.53023
  Beta  occ. eigenvalues --   -0.52407  -0.50194  -0.49474  -0.49277  -0.47759
  Beta  occ. eigenvalues --   -0.47331  -0.46510  -0.43582  -0.41150  -0.40604
  Beta  occ. eigenvalues --   -0.39760  -0.37050  -0.35599  -0.34658  -0.31455
  Beta  occ. eigenvalues --   -0.28046
  Beta virt. eigenvalues --   -0.08345  -0.01329   0.01377   0.01792   0.01910
  Beta virt. eigenvalues --    0.02142   0.03077   0.03525   0.03716   0.05337
  Beta virt. eigenvalues --    0.05726   0.06656   0.06895   0.07489   0.07737
  Beta virt. eigenvalues --    0.08322   0.08935   0.09541   0.10511   0.11253
  Beta virt. eigenvalues --    0.12477   0.12755   0.12966   0.13872   0.14000
  Beta virt. eigenvalues --    0.14671   0.14944   0.15162   0.16422   0.17351
  Beta virt. eigenvalues --    0.17669   0.18027   0.18493   0.19205   0.19970
  Beta virt. eigenvalues --    0.20400   0.20661   0.21018   0.21215   0.21934
  Beta virt. eigenvalues --    0.22051   0.22510   0.22688   0.22903   0.23959
  Beta virt. eigenvalues --    0.24878   0.25551   0.25862   0.26097   0.26430
  Beta virt. eigenvalues --    0.26990   0.27291   0.28046   0.28862   0.29024
  Beta virt. eigenvalues --    0.29580   0.30320   0.30409   0.30930   0.31695
  Beta virt. eigenvalues --    0.32245   0.32562   0.33451   0.34497   0.34779
  Beta virt. eigenvalues --    0.35710   0.37495   0.37691   0.39280   0.39973
  Beta virt. eigenvalues --    0.40700   0.41517   0.42659   0.46111   0.47811
  Beta virt. eigenvalues --    0.49223   0.57676   0.58427   0.62759   0.68820
  Beta virt. eigenvalues --    0.70029   0.70485   0.71317   0.73477   0.74736
  Beta virt. eigenvalues --    0.75994   0.76406   0.76915   0.77749   0.78316
  Beta virt. eigenvalues --    0.79249   0.80559   0.80813   0.81652   0.81916
  Beta virt. eigenvalues --    0.82764   0.82917   0.84275   0.86306   0.88382
  Beta virt. eigenvalues --    0.89131   0.91992   0.93018   0.93407   0.95307
  Beta virt. eigenvalues --    0.96735   0.98047   0.99686   1.01768   1.04363
  Beta virt. eigenvalues --    1.05028   1.05699   1.07726   1.10918   1.12451
  Beta virt. eigenvalues --    1.12642   1.13984   1.14890   1.15863   1.17298
  Beta virt. eigenvalues --    1.19308   1.19953   1.20381   1.21564   1.23155
  Beta virt. eigenvalues --    1.24259   1.24559   1.26875   1.28082   1.28998
  Beta virt. eigenvalues --    1.29672   1.31619   1.31845   1.34605   1.35896
  Beta virt. eigenvalues --    1.36933   1.39119   1.40141   1.40231   1.42986
  Beta virt. eigenvalues --    1.43824   1.45695   1.46476   1.47963   1.49062
  Beta virt. eigenvalues --    1.49965   1.51335   1.52644   1.54743   1.59437
  Beta virt. eigenvalues --    1.63297   1.68805   1.69977   1.74833   1.78940
  Beta virt. eigenvalues --    1.81064   1.83842   1.85357   1.85823   1.86401
  Beta virt. eigenvalues --    1.91104   1.92510   1.93482   1.94940   1.97068
  Beta virt. eigenvalues --    1.97548   1.98804   1.99777   2.01688   2.04562
  Beta virt. eigenvalues --    2.05050   2.06451   2.07264   2.08756   2.09959
  Beta virt. eigenvalues --    2.13802   2.15689   2.16738   2.17936   2.22592
  Beta virt. eigenvalues --    2.23675   2.24765   2.27611   2.29013   2.32237
  Beta virt. eigenvalues --    2.32608   2.34069   2.36009   2.38988   2.40347
  Beta virt. eigenvalues --    2.40878   2.41956   2.43467   2.43901   2.46803
  Beta virt. eigenvalues --    2.49307   2.50112   2.51244   2.51604   2.55045
  Beta virt. eigenvalues --    2.55728   2.56681   2.59900   2.60850   2.61494
  Beta virt. eigenvalues --    2.62404   2.62622   2.63881   2.64741   2.66645
  Beta virt. eigenvalues --    2.71749   2.73234   2.73922   2.74733   2.76918
  Beta virt. eigenvalues --    2.79916   2.81610   2.84189   2.86345   2.88210
  Beta virt. eigenvalues --    2.92242   2.94930   2.99837   3.03745   3.10946
  Beta virt. eigenvalues --    3.11871   3.15883   3.19386   3.24371   3.26432
  Beta virt. eigenvalues --    3.28265   3.31940   3.35847   3.39195   3.44926
  Beta virt. eigenvalues --    3.48391   3.49942   3.51547   3.53423   3.75927
  Beta virt. eigenvalues --    3.89429   4.03996   4.29098   4.32876   4.34170
  Beta virt. eigenvalues --    4.35652   4.37821   4.39245   4.45788   4.47847
  Beta virt. eigenvalues --    4.54567   4.57398   4.72376   4.95683
          Condensed to atoms (all electrons):
               1          2          3          4          5          6
     1  C    9.772688   0.563718  -0.526945  -1.160219   0.076885  -0.136083
     2  C    0.563718   8.757890  -3.110442   1.071163   0.076202   0.120188
     3  C   -0.526945  -3.110442  10.341425  -0.418194   0.075849  -0.238618
     4  C   -1.160219   1.071163  -0.418194   9.754977   0.123895  -2.163891
     5  H    0.076885   0.076202   0.075849   0.123895   0.533509  -0.021928
     6  C   -0.136083   0.120188  -0.238618  -2.163891  -0.021928  10.900186
     7  H    0.003136   0.217743   0.061102  -0.052948  -0.000148   0.053756
     8  C   -0.040190  -1.244505  -0.218710  -3.322922  -0.002069   1.136017
     9  H    0.004902  -0.029476   0.032961   0.175519  -0.003934   0.028033
    10  C   -0.933714   0.546745  -0.370216   1.723203   0.001469  -2.793270
    11  C   -0.241530  -0.437605   0.086970  -0.074660  -0.000826   0.107852
    12  H    0.020390   0.012389   0.007205  -0.010666   0.000000   0.039722
    13  C    0.026732  -0.013667  -0.311364  -0.411563   0.002740   0.661600
    14  H    0.001265   0.002055  -0.000701   0.001464  -0.000000   0.025335
    15  C   -0.282019   0.422422   0.209092   1.239487   0.008668  -1.674194
    16  H    0.007496  -0.004520   0.017403  -0.032275  -0.000008   0.025458
    17  H    0.000955  -0.000223   0.000755  -0.004308  -0.000000   0.009474
    18  C   -1.214851  -0.840216   0.541060  -0.349314  -0.027460  -0.014949
    19  H    0.060129  -0.066148   0.036269  -0.006130  -0.000004  -0.009127
    20  H   -0.173562   0.126141  -0.067688  -0.006687   0.000148   0.046464
    21  H   -0.145046  -0.025924   0.069636   0.040490   0.002281  -0.019868
    22  O    0.154322  -0.007609  -0.055680  -0.009120   0.000027   0.001536
    23  O   -0.052129  -0.053107   0.049179  -0.007362  -0.000010   0.000086
    24  H   -0.011581   0.027905  -0.015307   0.000353  -0.000000   0.005081
               7          8          9         10         11         12
     1  C    0.003136  -0.040190   0.004902  -0.933714  -0.241530   0.020390
     2  C    0.217743  -1.244505  -0.029476   0.546745  -0.437605   0.012389
     3  C    0.061102  -0.218710   0.032961  -0.370216   0.086970   0.007205
     4  C   -0.052948  -3.322922   0.175519   1.723203  -0.074660  -0.010666
     5  H   -0.000148  -0.002069  -0.003934   0.001469  -0.000826   0.000000
     6  C    0.053756   1.136017   0.028033  -2.793270   0.107852   0.039722
     7  H    0.545480  -0.017914   0.000018   0.022447   0.025375   0.003184
     8  C   -0.017914  13.450672   0.120480  -1.641564   0.224414   0.002062
     9  H    0.000018   0.120480   0.534605  -0.008721   0.003628   0.000001
    10  C    0.022447  -1.641564  -0.008721   8.770677   0.244942   0.241894
    11  C    0.025375   0.224414   0.003628   0.244942   5.888629   0.008654
    12  H    0.003184   0.002062   0.000001   0.241894   0.008654   0.539416
    13  C    0.000739   0.328732   0.008470  -0.842730   0.519290   0.012805
    14  H   -0.000008  -0.001613   0.000000   0.010966   0.253818  -0.004268
    15  C   -0.001636  -3.345930  -0.028941   1.613033  -0.380305  -0.030959
    16  H    0.000001   0.090828   0.002992  -0.036591   0.009049   0.000017
    17  H    0.000000   0.037078  -0.000008   0.005165   0.009976  -0.000153
    18  C   -0.013108   0.310451   0.001907  -0.323500  -0.019292   0.003237
    19  H    0.000020   0.002653  -0.000000  -0.000439   0.000018   0.000000
    20  H    0.002986  -0.006471   0.000002   0.003620   0.000215   0.000001
    21  H    0.000119   0.006798  -0.000002  -0.001303  -0.000025   0.000000
    22  O   -0.000134  -0.004386  -0.000004   0.000792   0.000247  -0.000001
    23  O    0.000274   0.005242   0.000002  -0.004263  -0.000027   0.000001
    24  H   -0.000005  -0.000747  -0.000000   0.001290   0.000027   0.000000
              13         14         15         16         17         18
     1  C    0.026732   0.001265  -0.282019   0.007496   0.000955  -1.214851
     2  C   -0.013667   0.002055   0.422422  -0.004520  -0.000223  -0.840216
     3  C   -0.311364  -0.000701   0.209092   0.017403   0.000755   0.541060
     4  C   -0.411563   0.001464   1.239487  -0.032275  -0.004308  -0.349314
     5  H    0.002740  -0.000000   0.008668  -0.000008  -0.000000  -0.027460
     6  C    0.661600   0.025335  -1.674194   0.025458   0.009474  -0.014949
     7  H    0.000739  -0.000008  -0.001636   0.000001   0.000000  -0.013108
     8  C    0.328732  -0.001613  -3.345930   0.090828   0.037078   0.310451
     9  H    0.008470   0.000000  -0.028941   0.002992  -0.000008   0.001907
    10  C   -0.842730   0.010966   1.613033  -0.036591   0.005165  -0.323500
    11  C    0.519290   0.253818  -0.380305   0.009049   0.009976  -0.019292
    12  H    0.012805  -0.004268  -0.030959   0.000017  -0.000153   0.003237
    13  C    6.003602   0.018707  -0.078146   0.007033   0.248050  -0.008144
    14  H    0.018707   0.527978   0.012149  -0.000152  -0.004064   0.000076
    15  C   -0.078146   0.012149   8.425013   0.223147   0.016536  -0.143321
    16  H    0.007033  -0.000152   0.223147   0.537850  -0.004201   0.000550
    17  H    0.248050  -0.004064   0.016536  -0.004201   0.526670   0.000050
    18  C   -0.008144   0.000076  -0.143321   0.000550   0.000050   7.741544
    19  H   -0.000033   0.000000   0.000172   0.000000   0.000000   0.046268
    20  H   -0.000012  -0.000000  -0.001299  -0.000000  -0.000000   0.426646
    21  H    0.000076   0.000000   0.000683   0.000000   0.000000   0.414513
    22  O    0.000032  -0.000000  -0.000648  -0.000000  -0.000000  -0.112033
    23  O   -0.000235  -0.000000   0.000309   0.000000  -0.000000   0.065976
    24  H    0.000011   0.000000  -0.000042   0.000000  -0.000000  -0.007943
              19         20         21         22         23         24
     1  C    0.060129  -0.173562  -0.145046   0.154322  -0.052129  -0.011581
     2  C   -0.066148   0.126141  -0.025924  -0.007609  -0.053107   0.027905
     3  C    0.036269  -0.067688   0.069636  -0.055680   0.049179  -0.015307
     4  C   -0.006130  -0.006687   0.040490  -0.009120  -0.007362   0.000353
     5  H   -0.000004   0.000148   0.002281   0.000027  -0.000010  -0.000000
     6  C   -0.009127   0.046464  -0.019868   0.001536   0.000086   0.005081
     7  H    0.000020   0.002986   0.000119  -0.000134   0.000274  -0.000005
     8  C    0.002653  -0.006471   0.006798  -0.004386   0.005242  -0.000747
     9  H   -0.000000   0.000002  -0.000002  -0.000004   0.000002  -0.000000
    10  C   -0.000439   0.003620  -0.001303   0.000792  -0.004263   0.001290
    11  C    0.000018   0.000215  -0.000025   0.000247  -0.000027   0.000027
    12  H    0.000000   0.000001   0.000000  -0.000001   0.000001   0.000000
    13  C   -0.000033  -0.000012   0.000076   0.000032  -0.000235   0.000011
    14  H    0.000000  -0.000000   0.000000  -0.000000  -0.000000   0.000000
    15  C    0.000172  -0.001299   0.000683  -0.000648   0.000309  -0.000042
    16  H    0.000000  -0.000000   0.000000  -0.000000   0.000000   0.000000
    17  H    0.000000  -0.000000   0.000000  -0.000000  -0.000000  -0.000000
    18  C    0.046268   0.426646   0.414513  -0.112033   0.065976  -0.007943
    19  H    0.418846  -0.003762  -0.004308   0.190783  -0.054267   0.001870
    20  H   -0.003762   0.519517  -0.029970   0.000796   0.000011   0.000064
    21  H   -0.004308  -0.029970   0.518904   0.001469   0.000750  -0.000012
    22  O    0.190783   0.000796   0.001469   8.119983   0.141808  -0.048190
    23  O   -0.054267   0.000011   0.000750   0.141808   7.991076   0.264573
    24  H    0.001870   0.000064  -0.000012  -0.048190   0.264573   0.418199
          Atomic-Atomic Spin Densities.
               1          2          3          4          5          6
     1  C   -0.404109   0.026845   0.043803   0.049533  -0.009555   0.039789
     2  C    0.026845   0.203036   0.161706  -0.021248  -0.001134  -0.090388
     3  C    0.043803   0.161706  -0.047290   0.026523   0.003862   0.065796
     4  C    0.049533  -0.021248   0.026523  -0.211433   0.003015  -0.018412
     5  H   -0.009555  -0.001134   0.003862   0.003015  -0.004235  -0.000923
     6  C    0.039789  -0.090388   0.065796  -0.018412  -0.000923  -0.151883
     7  H   -0.016608   0.011306  -0.006218   0.003303   0.000003   0.006702
     8  C    0.006160   0.079526  -0.139073   0.129845   0.001986   0.026050
     9  H   -0.000469   0.000819  -0.002965   0.005317  -0.000015   0.001677
    10  C    0.035682  -0.040534   0.038013  -0.046328  -0.000147   0.018193
    11  C    0.017917   0.009195   0.002515  -0.011325   0.000056   0.015330
    12  H    0.000244   0.000169  -0.000087  -0.000121  -0.000000  -0.000714
    13  C    0.000545   0.005324  -0.006897  -0.004924  -0.000020   0.018528
    14  H   -0.000016  -0.000091   0.000006   0.000032  -0.000000  -0.000358
    15  C   -0.017914  -0.002366   0.000183   0.032627  -0.000655  -0.012430
    16  H    0.000226   0.000084  -0.000418  -0.001071   0.000000   0.001601
    17  H   -0.000034  -0.000002  -0.000004   0.000642  -0.000000  -0.001727
    18  C   -0.020689  -0.110779  -0.032868  -0.019766   0.004019  -0.001158
    19  H   -0.018985   0.004394  -0.008490  -0.001118   0.000028   0.001902
    20  H    0.036017  -0.013788   0.016864   0.002141  -0.000020  -0.004212
    21  H    0.036882   0.013672  -0.006974   0.006204  -0.000196   0.002015
    22  O    0.026564   0.005497   0.008343   0.001759  -0.000033  -0.001466
    23  O    0.001493  -0.003219  -0.000758  -0.000404   0.000003  -0.000872
    24  H   -0.000039  -0.000373   0.000266  -0.000040   0.000000  -0.000059
               7          8          9         10         11         12
     1  C   -0.016608   0.006160  -0.000469   0.035682   0.017917   0.000244
     2  C    0.011306   0.079526   0.000819  -0.040534   0.009195   0.000169
     3  C   -0.006218  -0.139073  -0.002965   0.038013   0.002515  -0.000087
     4  C    0.003303   0.129845   0.005317  -0.046328  -0.011325  -0.000121
     5  H    0.000003   0.001986  -0.000015  -0.000147   0.000056  -0.000000
     6  C    0.006702   0.026050   0.001677   0.018193   0.015330  -0.000714
     7  H   -0.012430  -0.001940  -0.000000   0.002139   0.000874  -0.000029
     8  C   -0.001940   0.036710  -0.003070   0.037385  -0.014619  -0.001765
     9  H   -0.000000  -0.003070   0.002698   0.000294   0.000272  -0.000000
    10  C    0.002139   0.037385   0.000294   0.026864   0.000492   0.000829
    11  C    0.000874  -0.014619   0.000272   0.000492  -0.079012   0.000913
    12  H   -0.000029  -0.001765  -0.000000   0.000829   0.000913  -0.003417
    13  C   -0.000035  -0.007700  -0.000165  -0.016163  -0.002515   0.000339
    14  H   -0.000000   0.000483  -0.000000   0.000502  -0.000628  -0.000008
    15  C   -0.000899   0.006853  -0.001443  -0.003070   0.006135   0.000482
    16  H   -0.000000   0.000985   0.000011  -0.000439  -0.000258  -0.000000
    17  H   -0.000000   0.000729   0.000000   0.000288   0.000594   0.000001
    18  C    0.001796  -0.035069  -0.000186   0.016536   0.003420  -0.000094
    19  H    0.000005  -0.001395  -0.000000   0.000094   0.000003   0.000000
    20  H   -0.000073   0.002050  -0.000000   0.000698   0.000154  -0.000000
    21  H   -0.000023   0.000805  -0.000000   0.000865   0.000056  -0.000000
    22  O   -0.000006   0.001756   0.000000   0.000187   0.000017  -0.000000
    23  O    0.000001   0.000098   0.000000  -0.000480  -0.000089   0.000000
    24  H    0.000000   0.000008  -0.000000  -0.000043  -0.000002   0.000000
              13         14         15         16         17         18
     1  C    0.000545  -0.000016  -0.017914   0.000226  -0.000034  -0.020689
     2  C    0.005324  -0.000091  -0.002366   0.000084  -0.000002  -0.110779
     3  C   -0.006897   0.000006   0.000183  -0.000418  -0.000004  -0.032868
     4  C   -0.004924   0.000032   0.032627  -0.001071   0.000642  -0.019766
     5  H   -0.000020  -0.000000  -0.000655   0.000000  -0.000000   0.004019
     6  C    0.018528  -0.000358  -0.012430   0.001601  -0.001727  -0.001158
     7  H   -0.000035  -0.000000  -0.000899  -0.000000  -0.000000   0.001796
     8  C   -0.007700   0.000483   0.006853   0.000985   0.000729  -0.035069
     9  H   -0.000165  -0.000000  -0.001443   0.000011   0.000000  -0.000186
    10  C   -0.016163   0.000502  -0.003070  -0.000439   0.000288   0.016536
    11  C   -0.002515  -0.000628   0.006135  -0.000258   0.000594   0.003420
    12  H    0.000339  -0.000008   0.000482  -0.000000   0.000001  -0.000094
    13  C    0.112091  -0.000029   0.002088   0.000560   0.000680  -0.001643
    14  H   -0.000029   0.001679   0.000036  -0.000001  -0.000004  -0.000000
    15  C    0.002088   0.000036  -0.079409  -0.001297  -0.001088   0.006428
    16  H    0.000560  -0.000001  -0.001297   0.001891  -0.000003   0.000014
    17  H    0.000680  -0.000004  -0.001088  -0.000003  -0.004266   0.000001
    18  C   -0.001643  -0.000000   0.006428   0.000014   0.000001   1.156772
    19  H   -0.000012   0.000000  -0.000066   0.000000   0.000000   0.064491
    20  H    0.000051   0.000000   0.000145  -0.000000  -0.000000  -0.050256
    21  H    0.000030  -0.000000   0.000082  -0.000000  -0.000000  -0.066214
    22  O    0.000036  -0.000000   0.000054  -0.000000  -0.000000  -0.093868
    23  O   -0.000012   0.000000  -0.000038   0.000000   0.000000   0.006611
    24  H   -0.000000  -0.000000  -0.000002   0.000000   0.000000   0.000179
              19         20         21         22         23         24
     1  C   -0.018985   0.036017   0.036882   0.026564   0.001493  -0.000039
     2  C    0.004394  -0.013788   0.013672   0.005497  -0.003219  -0.000373
     3  C   -0.008490   0.016864  -0.006974   0.008343  -0.000758   0.000266
     4  C   -0.001118   0.002141   0.006204   0.001759  -0.000404  -0.000040
     5  H    0.000028  -0.000020  -0.000196  -0.000033   0.000003   0.000000
     6  C    0.001902  -0.004212   0.002015  -0.001466  -0.000872  -0.000059
     7  H    0.000005  -0.000073  -0.000023  -0.000006   0.000001   0.000000
     8  C   -0.001395   0.002050   0.000805   0.001756   0.000098   0.000008
     9  H   -0.000000  -0.000000  -0.000000   0.000000   0.000000  -0.000000
    10  C    0.000094   0.000698   0.000865   0.000187  -0.000480  -0.000043
    11  C    0.000003   0.000154   0.000056   0.000017  -0.000089  -0.000002
    12  H    0.000000  -0.000000  -0.000000  -0.000000   0.000000   0.000000
    13  C   -0.000012   0.000051   0.000030   0.000036  -0.000012  -0.000000
    14  H    0.000000   0.000000  -0.000000  -0.000000   0.000000  -0.000000
    15  C   -0.000066   0.000145   0.000082   0.000054  -0.000038  -0.000002
    16  H    0.000000  -0.000000  -0.000000  -0.000000   0.000000   0.000000
    17  H    0.000000  -0.000000  -0.000000  -0.000000   0.000000   0.000000
    18  C    0.064491  -0.050256  -0.066214  -0.093868   0.006611   0.000179
    19  H   -0.027083  -0.000168  -0.000699  -0.011013   0.002446  -0.000149
    20  H   -0.000168  -0.030481   0.004499   0.001183  -0.000077   0.000005
    21  H   -0.000699   0.004499  -0.023616   0.001859  -0.000132   0.000001
    22  O   -0.011013   0.001183   0.001859   0.106648  -0.006131   0.000823
    23  O    0.002446  -0.000077  -0.000132  -0.006131   0.004049  -0.000576
    24  H   -0.000149   0.000005   0.000001   0.000823  -0.000576   0.000203
 Mulliken charges and spin densities:
               1          2
     1  C    0.225249  -0.166717
     2  C   -0.111118   0.237649
     3  C   -0.195043   0.115838
     4  C   -0.100292  -0.075248
     5  H    0.154715  -0.003961
     6  C   -0.088859  -0.087020
     7  H    0.149521  -0.012133
     8  C    0.131595   0.126798
     9  H    0.157566   0.002774
    10  C   -0.229936   0.071858
    11  C   -0.228834  -0.050506
    12  H    0.155068  -0.003258
    13  C   -0.172728   0.100155
    14  H    0.156993   0.001605
    15  C   -0.203271  -0.065562
    16  H    0.155923   0.001887
    17  H    0.158248  -0.004191
    18  C   -0.478146   0.827676
    19  H    0.387191   0.004184
    20  H    0.162842  -0.035267
    21  H    0.170740  -0.030885
    22  O   -0.373990   0.042209
    23  O   -0.347887   0.001912
    24  H    0.364452   0.000203
 Sum of Mulliken charges =  -0.00000   1.00000
 Mulliken charges and spin densities with hydrogens summed into heavy atoms:
               1          2
     1  C    0.225249  -0.166717
     2  C    0.038403   0.225515
     3  C   -0.040328   0.111877
     4  C    0.057274  -0.072474
     6  C   -0.088859  -0.087020
     8  C    0.131595   0.126798
    10  C   -0.074868   0.068600
    11  C   -0.071842  -0.048902
    13  C   -0.014479   0.095964
    15  C   -0.047348  -0.063675
    18  C   -0.144564   0.761525
    22  O    0.013201   0.046393
    23  O    0.016565   0.002115
 APT charges:
               1
     1  C    0.225664
     2  C   -0.336087
     3  C   -0.306072
     4  C   -0.320729
     5  H    0.596087
     6  C   -1.162087
     7  H    0.448689
     8  C   -0.334071
     9  H    0.615472
    10  C   -0.707969
    11  C   -0.371207
    12  H    0.468458
    13  C   -0.366645
    14  H    0.829110
    15  C   -0.681949
    16  H    0.625676
    17  H    0.910415
    18  C   -1.256214
    19  H    0.186147
    20  H    0.481282
    21  H    0.618130
    22  O   -0.219738
    23  O   -0.938874
    24  H    0.996514
 Sum of APT charges =  -0.00000
 APT charges with hydrogens summed into heavy atoms:
               1
     1  C    0.225664
     2  C    0.112602
     3  C    0.290015
     4  C    0.294743
     6  C   -1.162087
     8  C   -0.334071
    10  C   -0.239511
    11  C    0.457903
    13  C    0.543770
    15  C   -0.056274
    18  C   -0.156802
    22  O   -0.033592
    23  O    0.057640
 Electronic spatial extent (au):  <R**2>=           3202.3905
 Charge=             -0.0000 electrons
 Dipole moment (field-independent basis, Debye):
    X=             -1.8387    Y=             -0.3576    Z=              2.2950  Tot=              2.9624
 Quadrupole moment (field-independent basis, Debye-Ang):
   XX=            -76.2288   YY=            -66.5954   ZZ=            -81.1041
   XY=             -1.8816   XZ=             12.6912   YZ=             -5.0381
 Traceless Quadrupole moment (field-independent basis, Debye-Ang):
   XX=             -1.5860   YY=              8.0474   ZZ=             -6.4614
   XY=             -1.8816   XZ=             12.6912   YZ=             -5.0381
 Octapole moment (field-independent basis, Debye-Ang**2):
  XXX=            -19.6353  YYY=            -16.8813  ZZZ=             -2.6079  XYY=             29.4884
  XXY=            -33.9055  XXZ=             17.6655  XZZ=              6.6527  YZZ=             -1.8612
  YYZ=             -3.9554  XYZ=              7.6797
 Hexadecapole moment (field-independent basis, Debye-Ang**3):
 XXXX=          -3106.7247 YYYY=           -653.2139 ZZZZ=           -403.1741 XXXY=           -131.1269
 XXXZ=            154.6132 YYYX=            -68.3450 YYYZ=            -15.4571 ZZZX=             -4.1334
 ZZZY=             -6.6095 XXYY=           -492.9536 XXZZ=           -624.8005 YYZZ=           -183.0281
 XXYZ=             -1.1472 YYXZ=            -11.6804 ZZXY=            -13.9136
 N-N= 7.070365965637D+02 E-N=-2.753453350487D+03  KE= 5.710855449305D+02
  Exact polarizability:   0.000   0.000   0.000   0.000   0.000   0.000
 Approx polarizability: 250.075  32.110 180.114  37.892 -20.845 126.960
                          Isotropic Fermi Contact Couplings
        Atom                 a.u.       MegaHertz       Gauss      10(-4) cm-1
     1  C(13)             -0.03937     -44.25773     -15.79226     -14.76279
     2  C(13)              0.04458      50.12122      17.88450      16.71864
     3  C(13)              0.01655      18.60736       6.63957       6.20675
     4  C(13)             -0.01459     -16.40452      -5.85354      -5.47196
     5  H(1)              -0.00140      -6.25440      -2.23172      -2.08624
     6  C(13)             -0.01835     -20.63447      -7.36289      -6.88292
     7  H(1)              -0.00405     -18.11689      -6.46456      -6.04314
     8  C(13)              0.01841      20.70132       7.38675       6.90522
     9  H(1)               0.00086       3.85342       1.37499       1.28536
    10  C(13)              0.01199      13.47449       4.80803       4.49461
    11  C(13)             -0.00927     -10.41608      -3.71672      -3.47443
    12  H(1)              -0.00106      -4.74573      -1.69339      -1.58300
    13  C(13)              0.01438      16.16551       5.76825       5.39223
    14  H(1)               0.00048       2.16240       0.77160       0.72130
    15  C(13)             -0.01124     -12.63853      -4.50974      -4.21576
    16  H(1)               0.00058       2.59388       0.92556       0.86522
    17  H(1)              -0.00127      -5.69332      -2.03152      -1.89909
    18  C(13)              0.20204     227.13700      81.04813      75.76475
    19  H(1)              -0.01080     -48.28217     -17.22828     -16.10520
    20  H(1)              -0.00786     -35.14670     -12.54122     -11.72368
    21  H(1)              -0.00712     -31.82612     -11.35635     -10.61605
    22  O(17)              0.02225     -13.49050      -4.81375      -4.49995
    23  O(17)             -0.00000       0.00147       0.00052       0.00049
    24  H(1)               0.00002       0.10128       0.03614       0.03378
 --------------------------------------------------------
       Center         ----  Spin Dipole Couplings  ----
                      3XX-RR        3YY-RR        3ZZ-RR
 --------------------------------------------------------
     1   Atom        0.055173      0.015109     -0.070282
     2   Atom       -0.082891     -0.058713      0.141605
     3   Atom       -0.022887     -0.018208      0.041095
     4   Atom        0.020374      0.012912     -0.033286
     5   Atom       -0.002106      0.005683     -0.003577
     6   Atom        0.019670      0.007120     -0.026791
     7   Atom       -0.008798      0.010408     -0.001610
     8   Atom       -0.027341     -0.024313      0.051654
     9   Atom        0.002839     -0.001090     -0.001749
    10   Atom       -0.017470     -0.016510      0.033980
    11   Atom        0.011955      0.006699     -0.018654
    12   Atom       -0.001805      0.002654     -0.000849
    13   Atom       -0.022009     -0.021258      0.043267
    14   Atom        0.001073     -0.000594     -0.000479
    15   Atom        0.014595      0.008194     -0.022789
    16   Atom        0.002300     -0.001084     -0.001216
    17   Atom        0.005628     -0.005303     -0.000325
    18   Atom       -0.089510     -0.243867      0.333377
    19   Atom        0.013012     -0.028226      0.015214
    20   Atom       -0.033579      0.011541      0.022038
    21   Atom       -0.017216      0.037086     -0.019870
    22   Atom        0.072296     -0.132062      0.059766
    23   Atom       -0.012868     -0.009774      0.022642
    24   Atom       -0.001786      0.003067     -0.001280
 --------------------------------------------------------
                        XY            XZ            YZ
 --------------------------------------------------------
     1   Atom        0.018680      0.038461     -0.049671
     2   Atom       -0.047614     -0.098100      0.133323
     3   Atom       -0.018772     -0.031634      0.037265
     4   Atom        0.011368      0.026465     -0.030087
     5   Atom        0.000157      0.000022     -0.003811
     6   Atom        0.010041      0.021708     -0.021560
     7   Atom       -0.005651      0.000485     -0.010096
     8   Atom       -0.020547     -0.037967      0.047294
     9   Atom        0.001508      0.001040      0.000333
    10   Atom       -0.011956     -0.027093      0.030362
    11   Atom        0.006247      0.015129     -0.016691
    12   Atom       -0.000238      0.000133     -0.002580
    13   Atom       -0.016857     -0.032644      0.040659
    14   Atom       -0.000829      0.001347     -0.000710
    15   Atom        0.009143      0.017727     -0.019400
    16   Atom        0.001143      0.000888      0.000338
    17   Atom       -0.000903      0.002939      0.001907
    18   Atom       -0.186262     -0.451308      0.294458
    19   Atom       -0.025327     -0.056443      0.027808
    20   Atom       -0.024451     -0.002358     -0.037552
    21   Atom        0.036572     -0.013363      0.022667
    22   Atom       -0.047290     -0.210367      0.047165
    23   Atom       -0.021952     -0.015053      0.020680
    24   Atom       -0.002731     -0.001520      0.002229
 --------------------------------------------------------


 ---------------------------------------------------------------------------------
              Anisotropic Spin Dipole Couplings in Principal Axis System
 ---------------------------------------------------------------------------------

       Atom             a.u.   MegaHertz   Gauss  10(-4) cm-1        Axes

              Baa    -0.1045   -14.027    -5.005    -4.679 -0.2586  0.4046  0.8772
     1 C(13)  Bbb     0.0379     5.084     1.814     1.696 -0.0297  0.9043 -0.4258
              Bcc     0.0666     8.943     3.191     2.983  0.9655  0.1362  0.2218
 
              Baa    -0.1255   -16.845    -6.011    -5.619 -0.1740  0.8541 -0.4902
     2 C(13)  Bbb    -0.1190   -15.967    -5.697    -5.326  0.9327  0.3026  0.1963
              Bcc     0.2445    32.811    11.708    10.945 -0.3160  0.4230  0.8492
 
              Baa    -0.0395    -5.303    -1.892    -1.769  0.7004  0.7117 -0.0542
     3 C(13)  Bbb    -0.0336    -4.503    -1.607    -1.502  0.6181 -0.5667  0.5448
              Bcc     0.0731     9.806     3.499     3.271 -0.3570  0.4150  0.8368
 
              Baa    -0.0586    -7.863    -2.806    -2.623 -0.3423  0.4101  0.8454
     4 C(13)  Bbb     0.0272     3.650     1.302     1.217  0.3375  0.8933 -0.2967
              Bcc     0.0314     4.214     1.503     1.405  0.8769 -0.1838  0.4442
 
              Baa    -0.0049    -2.639    -0.942    -0.880 -0.0260  0.3377  0.9409
     5 H(1)   Bbb    -0.0021    -1.124    -0.401    -0.375  0.9995 -0.0057  0.0297
              Bcc     0.0071     3.763     1.343     1.255  0.0154  0.9412 -0.3374
 
              Baa    -0.0460    -6.169    -2.201    -2.058 -0.3423  0.4083  0.8462
     6 C(13)  Bbb     0.0176     2.359     0.842     0.787  0.0362  0.9057 -0.4224
              Bcc     0.0284     3.811     1.360     1.271  0.9389  0.1140  0.3248
 
              Baa    -0.0112    -5.987    -2.136    -1.997  0.8420  0.3927  0.3699
     7 H(1)   Bbb    -0.0060    -3.179    -1.134    -1.060 -0.5026  0.3215  0.8025
              Bcc     0.0172     9.166     3.271     3.057 -0.1962  0.8616 -0.4681
 
              Baa    -0.0478    -6.419    -2.290    -2.141  0.3688  0.8862 -0.2805
     8 C(13)  Bbb    -0.0423    -5.679    -2.026    -1.894  0.8633 -0.2146  0.4568
              Bcc     0.0902    12.098     4.317     4.036 -0.3446  0.4106  0.8442
 
              Baa    -0.0020    -1.053    -0.376    -0.351 -0.2058 -0.0176  0.9784
     9 H(1)   Bbb    -0.0016    -0.854    -0.305    -0.285 -0.3110  0.9492 -0.0484
              Bcc     0.0036     1.907     0.681     0.636  0.9278  0.3143  0.2009
 
              Baa    -0.0309    -4.152    -1.482    -1.385 -0.2712  0.8235 -0.4983
    10 C(13)  Bbb    -0.0287    -3.845    -1.372    -1.282  0.8932  0.4082  0.1885
              Bcc     0.0596     7.997     2.854     2.668 -0.3586  0.3940  0.8463
 
              Baa    -0.0329    -4.413    -1.575    -1.472 -0.3423  0.4104  0.8452
    11 C(13)  Bbb     0.0146     1.964     0.701     0.655  0.2880  0.9021 -0.3214
              Bcc     0.0182     2.449     0.874     0.817  0.8944 -0.1334  0.4270
 
              Baa    -0.0022    -1.182    -0.422    -0.394 -0.0150  0.4675  0.8839
    12 H(1)   Bbb    -0.0018    -0.970    -0.346    -0.323  0.9988  0.0483 -0.0086
              Bcc     0.0040     2.152     0.768     0.718 -0.0467  0.8827 -0.4676
 
              Baa    -0.0411    -5.510    -1.966    -1.838  0.1588  0.9120 -0.3782
    13 C(13)  Bbb    -0.0355    -4.768    -1.701    -1.590  0.9235 -0.0018  0.3835
              Bcc     0.0766    10.278     3.667     3.428 -0.3491  0.4102  0.8425
 
              Baa    -0.0014    -0.724    -0.258    -0.241 -0.3161  0.4395  0.8408
    14 H(1)   Bbb    -0.0009    -0.481    -0.171    -0.160  0.5105  0.8258 -0.2397
              Bcc     0.0023     1.204     0.430     0.402  0.7997 -0.3534  0.4854
 
              Baa    -0.0395    -5.297    -1.890    -1.767 -0.3460  0.4098  0.8440
    15 C(13)  Bbb     0.0175     2.344     0.836     0.782 -0.1067  0.8765 -0.4694
              Bcc     0.0220     2.953     1.054     0.985  0.9321  0.2525  0.2595
 
              Baa    -0.0015    -0.798    -0.285    -0.266 -0.0524  0.7154 -0.6967
    16 H(1)   Bbb    -0.0014    -0.733    -0.261    -0.244 -0.3625  0.6365  0.6808
              Bcc     0.0029     1.531     0.546     0.511  0.9305  0.2882  0.2260
 
              Baa    -0.0062    -3.333    -1.189    -1.112  0.1622  0.9129 -0.3746
    17 H(1)   Bbb    -0.0006    -0.315    -0.112    -0.105 -0.3411  0.4081  0.8469
              Bcc     0.0068     3.647     1.301     1.217  0.9259 -0.0096  0.3775
 
              Baa    -0.3765   -50.524   -18.028   -16.853  0.8274 -0.0739  0.5567
    18 C(13)  Bbb    -0.3668   -49.219   -17.563   -16.418  0.2441  0.9401 -0.2380
              Bcc     0.7433    99.743    35.591    33.271 -0.5057  0.3328  0.7959
 
              Baa    -0.0431   -23.007    -8.210    -7.674  0.5024 -0.4837  0.7167
    19 H(1)   Bbb    -0.0401   -21.407    -7.639    -7.141  0.5575  0.8148  0.1592
              Bcc     0.0832    44.415    15.848    14.815 -0.6609  0.3196  0.6790
 
              Baa    -0.0496   -26.454    -9.440    -8.824  0.8131  0.5041  0.2911
    20 H(1)   Bbb    -0.0075    -4.004    -1.429    -1.336 -0.5584  0.5343  0.6346
              Bcc     0.0571    30.459    10.868    10.160  0.1644 -0.6785  0.7159
 
              Baa    -0.0519   -27.675    -9.875    -9.231  0.6825 -0.4310  0.5903
    21 H(1)   Bbb    -0.0064    -3.413    -1.218    -1.138 -0.6115  0.1056  0.7841
              Bcc     0.0583    31.088    11.093    10.370  0.4003  0.8962  0.1915
 
              Baa    -0.1448    10.478     3.739     3.495  0.5972 -0.3860  0.7031
    22 O(17)  Bbb    -0.1423    10.298     3.675     3.435  0.3762  0.9090  0.1795
              Bcc     0.2871   -20.777    -7.414    -6.930  0.7084 -0.1573 -0.6881
 
              Baa    -0.0336     2.428     0.866     0.810  0.7000  0.7104 -0.0739
    23 O(17)  Bbb    -0.0093     0.671     0.239     0.224  0.5922 -0.5195  0.6160
              Bcc     0.0428    -3.099    -1.106    -1.034 -0.3992  0.4749  0.7843
 
              Baa    -0.0032    -1.725    -0.616    -0.576  0.8783  0.2330  0.4175
    24 H(1)   Bbb    -0.0021    -1.135    -0.405    -0.378 -0.2629 -0.4939  0.8288
              Bcc     0.0054     2.860     1.020     0.954 -0.3994  0.8377  0.3725
 

 ---------------------------------------------------------------------------------

 Calling FoFJK, ICntrl=    100147 FMM=F ISym2X=0 I1Cent= 0 IOpClX= 1 NMat=1 NMatS=1 NMatT=0.
 ***** Axes restored to original set *****
 -------------------------------------------------------------------
 Center     Atomic                   Forces (Hartrees/Bohr)
 Number     Number              X              Y              Z
 -------------------------------------------------------------------
      1        6           0.025353680   -0.000527366   -0.005415054
      2        6          -0.005015940   -0.008044836    0.001327530
      3        6           0.000411848    0.005218317   -0.000270608
      4        6          -0.000129984    0.003410414   -0.000843970
      5        1           0.001882792    0.001753696   -0.000246499
      6        6           0.000748361   -0.000786052    0.001202484
      7        1           0.000839248   -0.002121602    0.000263295
      8        6          -0.002000379   -0.000167180   -0.000520540
      9        1          -0.000525288    0.002061678   -0.000748889
     10        6           0.002930330   -0.002584307    0.001725538
     11        6          -0.003567912   -0.001427665   -0.000642102
     12        1           0.000623556   -0.002135039    0.000700742
     13        6          -0.003235964   -0.002151456   -0.000410540
     14        1          -0.001824005   -0.001956534    0.000075853
     15        6           0.001762916    0.004044923   -0.000974850
     16        1          -0.000638836    0.002127874   -0.000711565
     17        1          -0.002781596    0.000479484   -0.000792396
     18        6          -0.023885461    0.006672092    0.021604363
     19        1           0.006548076   -0.023277784   -0.033702048
     20        1           0.004013347   -0.004756589   -0.005923471
     21        1           0.005323390    0.001545734   -0.007356232
     22        8           0.006992503    0.030061122    0.028453579
     23        8          -0.016455185   -0.006215553    0.001617838
     24        1           0.002630504   -0.001223371    0.001587543
 -------------------------------------------------------------------
 Cartesian Forces:  Max     0.033702048 RMS     0.009105658
 FormGI is forming the generalized inverse of G from B-inverse, IUseBI=4.

 GradGradGradGradGradGradGradGradGradGradGradGradGradGradGradGradGradGrad
 Berny optimization.
 Internal  Forces:  Max     0.036135584 RMS     0.005285909
 Search for a local minimum.
 Step number   1 out of a maximum of  144
 All quantities printed in internal units (Hartrees-Bohrs-Radians)
 Mixed Optimization -- RFO/linear search
 Second derivative matrix not updated -- analytic derivatives used.
 ITU=  0
     Eigenvalues ---   -0.01673  -0.00818   0.00362   0.00496   0.00585
     Eigenvalues ---    0.00875   0.01150   0.01219   0.01399   0.01457
     Eigenvalues ---    0.01571   0.01669   0.01797   0.02026   0.02084
     Eigenvalues ---    0.02154   0.02245   0.02389   0.02453   0.02532
     Eigenvalues ---    0.02678   0.02819   0.02824   0.03161   0.08845
     Eigenvalues ---    0.09107   0.11217   0.11501   0.11675   0.11898
     Eigenvalues ---    0.12316   0.12490   0.12713   0.17133   0.18224
     Eigenvalues ---    0.18539   0.18973   0.19229   0.19694   0.20280
     Eigenvalues ---    0.20476   0.20873   0.27124   0.29480   0.31489
     Eigenvalues ---    0.31769   0.35735   0.36183   0.36344   0.36612
     Eigenvalues ---    0.36745   0.36830   0.36907   0.37308   0.37534
     Eigenvalues ---    0.38592   0.41295   0.41466   0.43049   0.44844
     Eigenvalues ---    0.45138   0.50107   0.52286   0.54207   0.54969
     Eigenvalues ---    0.55061
 RFO step:  Lambda=-2.00262538D-02 EMin=-1.67271725D-02
 Linear search not attempted -- first point.
 Maximum step size (   0.300) exceeded in Quadratic search.
    -- Step size scaled by   0.338
 Iteration  1 RMS(Cart)=  0.17041448 RMS(Int)=  0.01335709
 Iteration  2 RMS(Cart)=  0.06871186 RMS(Int)=  0.00198347
 Iteration  3 RMS(Cart)=  0.00232477 RMS(Int)=  0.00059930
 Iteration  4 RMS(Cart)=  0.00001296 RMS(Int)=  0.00059926
 Iteration  5 RMS(Cart)=  0.00000001 RMS(Int)=  0.00059926
 Variable       Old X    -DE/DX   Delta X   Delta X   Delta X     New X
                                 (Linear)    (Quad)   (Total)
    R1        2.60732   0.01203   0.00000   0.01117   0.01117   2.61849
    R2        2.69521   0.00758   0.00000   0.00824   0.00824   2.70345
    R3        2.74232  -0.01302   0.00000  -0.02527  -0.02527   2.71705
    R4        2.66790   0.00364   0.00000   0.00075   0.00074   2.66864
    R5        2.04823   0.00222   0.00000   0.00145   0.00145   2.04969
    R6        2.56998   0.00518   0.00000   0.00092   0.00093   2.57090
    R7        2.04527   0.00257   0.00000   0.00236   0.00236   2.04763
    R8        2.68376   0.00711   0.00000   0.00588   0.00589   2.68965
    R9        2.04614   0.00225   0.00000   0.00206   0.00206   2.04820
   R10        2.68121   0.00629   0.00000   0.00381   0.00380   2.68502
   R11        2.67797   0.00503   0.00000   0.00300   0.00300   2.68098
   R12        2.67029   0.00397   0.00000   0.00092   0.00092   2.67121
   R13        2.58194   0.00690   0.00000   0.00422   0.00422   2.58616
   R14        2.04607   0.00233   0.00000   0.00203   0.00203   2.04811
   R15        2.66892   0.00450   0.00000   0.00204   0.00204   2.67096
   R16        2.04288   0.00268   0.00000   0.00239   0.00239   2.04528
   R17        2.58540   0.00753   0.00000   0.00546   0.00546   2.59085
   R18        2.04267   0.00292   0.00000   0.00212   0.00212   2.04478
   R19        2.04612   0.00231   0.00000   0.00227   0.00227   2.04838
[...]
 0.00023309,-0.00363491,0.02404271,-0.01191110,-0.00013820,-0.00098056,
 0.00011589,-0.00098394,-0.00048393,0.00005232,-0.00028913,-0.00411673,
 -0.00298620,-0.00010893,0.00023746,0.00044217,0.00984219,-0.01654261,0
 .00837434,0.00032176,-0.00086836,0.00041203,-0.07866010,0.06728610,-0.
 04361760,0.07690390,-0.00008233,0.00020856,-0.00010407,-0.00036687,-0.
 00007446,-0.00012892,0.00037473,-0.00007031,0.00016886,-0.00085208,0.0
 0065843,-0.00175406,0.00001960,0.00001774,0.00006306,-0.00086259,0.001
 86522,0.00083920,0.00001842,0.00000485,0.00003196,-0.00106837,0.001708
 80,-0.00004155,0.00059748,0.00030253,0.00032491,-0.00041934,0.00026185
 ,-0.00057112,-0.00486363,-0.00170097,0.00078365,0.00022107,-0.00013886
 ,-0.00020878,0.00992216,-0.01598219,0.01200953,0.00050725,-0.00090326,
 0.00058396,0.06688110,-0.25930760,0.10988941,-0.07068977,0.27276811,-0
 .00000976,0.00002693,-0.00001521,0.00017021,0.00079319,-0.00010246,-0.
 00000009,-0.00020692,-0.00001190,0.00223899,-0.00039111,-0.00225342,-0
 .00008928,0.00004260,0.00013726,-0.00432080,0.00027700,0.00347700,-0.0
 0023875,0.00002159,-0.00006202,-0.00349424,0.01304425,-0.00251558,-0.0
 0041404,-0.00050000,0.00026308,0.00005971,-0.00054310,-0.00058280,-0.0
 0280216,0.00117168,0.00627941,0.00044417,-0.00019866,-0.00081378,-0.00
 050135,-0.00187679,0.00481944,-0.00003442,-0.00012431,0.00009857,-0.04
 345503,0.11026143,-0.09791365,0.05031423,-0.12048818,0.09257165,0.0000
 7700,-0.00015041,0.00002382,-0.00003192,0.00017560,0.00032026,-0.00034
 025,-0.00026430,0.00018512,-0.00042392,0.00055097,-0.00048019,-0.00008
 535,0.00000917,-0.00004473,0.00020680,-0.00009384,0.00050522,0.0000062
 1,0.00001214,-0.00002497,0.00142275,-0.00420576,-0.00223127,0.00002215
 ,-0.00005287,-0.00003410,0.00223890,0.00102472,-0.00202840,-0.00351043
 ,-0.00212623,-0.00275342,-0.00029050,-0.00014716,-0.00013994,-0.268483
 68,0.00696691,-0.12282504,-0.00017002,0.00062939,0.00127360,-0.0109017
 9,0.00321649,-0.00896143,-0.00033960,0.00059176,0.00214058,0.28057031,
 0.00023794,-0.00023965,0.00023339,0.00036788,0.00014279,-0.00011187,-0
 .00041769,-0.00024175,-0.00029672,-0.00055973,0.00086668,-0.00053574,-
 0.00012858,0.00001384,-0.00005806,-0.00054555,-0.00111657,-0.00015158,
 -0.00008089,0.00001730,-0.00003149,-0.00378551,-0.00388924,0.00217932,
 0.00000275,-0.00001133,0.00004248,0.00056338,-0.00425238,0.00354561,0.
 02435975,0.00425096,0.01234135,0.00124674,0.00002151,0.00066665,0.0073
 3237,-0.05954950,0.01015284,0.00002153,0.00055724,-0.00121169,-0.02333
 405,0.00599899,-0.01274538,0.00104435,0.00036772,-0.00120595,-0.006147
 71,0.05704717,-0.00010732,0.00005422,0.00004295,0.00021995,-0.00021430
 ,-0.00057450,0.00022461,-0.00022852,-0.00032032,-0.00012623,0.00003085
 ,0.00004665,-0.00000152,0.00000264,0.00000656,0.00068881,0.00003825,-0
 .00040107,0.00000810,0.00001194,0.00004374,-0.00237366,0.00202697,0.00
 665382,-0.00004954,0.00001649,0.00008797,-0.00193241,0.00374733,0.0032
 8578,-0.01151970,-0.00143942,-0.00207578,-0.00057457,-0.00005038,-0.00
 022750,-0.12318911,0.00989013,-0.10602880,0.00146953,-0.00086585,-0.00
 200749,0.00008471,0.00117596,0.00402716,0.00201748,-0.00145350,-0.0033
 9785,0.13511367,-0.01275756,0.10077791,-0.22541781,0.01761605,-0.08648
 395,-0.06294333,-0.04293627,-0.01626542,-0.03500790,0.02923389,-0.0280
 8816,0.02621795,0.01029277,0.00822267,0.00069706,-0.00152649,0.0017914
 0,0.01016274,-0.00516363,0.00437212,0.00041317,0.00221832,0.00097439,-
 0.01982305,-0.00914922,-0.00666459,0.00038814,0.00005729,0.00013157,0.
 00062364,-0.00056693,0.00048402,-0.00359373,0.00244734,-0.00253025,0.0
 0005416,0.00005821,-0.00003543,-0.00462431,-0.00962019,0.00089961,-0.0
 0008269,0.00007953,-0.00004859,0.01412979,0.00599458,0.00510624,0.0001
 0853,0.00009945,0.00002240,0.00001034,-0.00015285,0.00005966,0.5360743
 2,-0.00123892,-0.10134642,0.02024148,-0.02941634,0.00638333,-0.0134658
 2,0.03213070,0.00027341,0.01629566,-0.00152593,-0.00661175,0.00236311,
 0.00130764,0.00055849,-0.00020908,-0.00255336,-0.00432120,0.00197224,-
 0.00059349,0.00052703,-0.00150825,0.00079655,-0.00009126,-0.00016553,0
 .00127172,0.00003745,0.00071378,-0.00132001,0.00045362,-0.00073413,0.0
 0013062,-0.00052074,0.00017248,-0.00000310,-0.00004176,0.00002608,0.00
 011403,0.00043839,-0.00015648,-0.00013097,0.00000416,-0.00007254,-0.00
 039600,0.00011241,-0.00014343,-0.00012584,0.00002219,-0.00007656,0.000
 01874,0.00003655,0.00000183,0.07466753,0.61211206,-0.08164299,0.028646
 53,-0.08808492,-0.02080755,-0.01933624,0.00349792,-0.02891387,0.014623
 26,-0.01293529,0.01058573,0.00787068,0.00563770,0.00071393,-0.00154450
 ,-0.00087831,0.00285281,0.00082198,0.00558824,0.00185537,-0.00004362,-
 0.00178904,-0.00800552,-0.00450525,-0.00422168,-0.00031959,0.00002507,
 -0.00012531,0.00061847,-0.00041584,0.00080120,-0.00152473,0.00108520,-
 0.00136652,-0.00000552,0.00006508,0.00002035,-0.00183291,-0.00444169,0
 .00042641,0.00003403,0.00004451,-0.00001843,0.00625314,0.00280277,0.00
 251829,0.00010876,0.00001286,0.00003187,-0.00001016,-0.00007529,0.0000
 4017,0.18081069,-0.15861258,0.21082513,-0.00019035,0.00052086,-0.00015
 820,-0.00043028,-0.00042579,0.00016907,-0.00003821,0.00060087,-0.00027
 316,-0.00012793,-0.00017118,0.00011751,0.00000422,-0.00014308,-0.00001
 189,-0.00090176,0.00001076,-0.00030649,-0.00014306,-0.00012319,0.00051
 627,0.00000587,-0.00017098,-0.00000943,0.00004395,-0.00002625,0.000003
 30,0.00001150,-0.00000669,0.00004463,0.00007792,0.00007501,0.00001257,
 -0.00003071,-0.00001021,0.00001275,0.00006278,0.00011078,0.00002370,0.
 00002854,0.00001033,0.00001143,-0.00016246,-0.00005231,-0.00009452,0.0
 0002035,-0.00002724,0.00000935,0.00003108,0.00000235,0.00000503,0.0004
 3406,0.00072003,0.00229526,0.06183286,0.00094663,-0.00082269,-0.000294
 16,0.00159399,0.00085249,-0.00070489,0.00024648,-0.00054942,0.00041416
 ,0.00020629,-0.00006059,0.00030853,-0.00000758,-0.00012491,-0.00006492
 ,-0.00047284,-0.00031020,-0.00012020,-0.00031794,-0.00027472,0.0006959
 9,0.00016006,-0.00008394,-0.00016777,-0.00002014,-0.00000220,-0.000040
 12,-0.00000896,0.00015060,-0.00015797,-0.00009224,0.00003247,-0.000058
 03,-0.00004705,-0.00004848,0.00006848,-0.00011452,-0.00001782,-0.00008
 087,-0.00002297,-0.00001163,0.00000520,-0.00009984,-0.00019154,0.00005
 305,-0.00000490,0.00002129,0.00001245,-0.00000965,-0.00000897,0.000010
 38,-0.00096405,0.00034093,0.00033244,0.03947845,0.23868539,0.00199772,
 -0.00135310,-0.00054526,0.00137855,0.00019086,0.00005240,0.00019244,-0
 .00067102,0.00027779,-0.00012942,0.00006267,-0.00045829,-0.00002336,0.
 00019919,0.00008148,0.00024670,0.00009497,0.00024186,0.00027322,0.0002
 5993,-0.00038489,-0.00006223,0.00004707,-0.00009629,-0.00009239,0.0000
 5585,-0.00003205,-0.00011804,-0.00000813,-0.00025923,-0.00000829,-0.00
 001457,-0.00004659,0.00001542,0.00001115,0.00006592,-0.00019615,0.0000
 9130,-0.00013315,-0.00005186,-0.00002057,0.00000808,-0.00017926,-0.000
 19914,-0.00005966,-0.00004364,0.00004694,-0.00000846,-0.00002376,0.000
 00227,0.00000715,-0.00105415,0.00013689,0.00045825,0.09869819,0.226935
 87,0.30649856,-0.00368168,0.02400961,-0.01181591,0.00076337,0.00194159
 ,0.00114883,-0.00356207,-0.00255788,-0.00325490,0.00011547,0.00157937,
 -0.00049648,-0.00001070,0.00024951,-0.00001080,0.00007041,-0.00035745,
 0.00019569,-0.00022954,-0.00084479,0.00004872,0.00019994,0.00004539,0.
 00001289,-0.00048158,0.00005569,-0.00002084,0.00002102,0.00006638,-0.0
 0002446,-0.00005566,0.00001738,-0.00003236,-0.00001872,-0.00002931,-0.
 00000763,-0.00002928,-0.00006563,-0.00000070,0.00000233,-0.00000375,-0
 .00000184,0.00003949,-0.00006640,0.00004639,0.00002170,0.00000144,0.00
 002478,-0.00000064,-0.00000988,-0.00000121,-0.08098226,0.07063503,-0.0
 5216038,0.00022012,0.00009885,-0.00010353,0.07909861,-0.00068634,0.002
 11146,0.00010856,-0.00105952,0.00013396,-0.00171398,-0.00093647,0.0015
 4222,0.00112490,0.00020530,0.00014102,0.00008526,-0.00012711,0.0003213
 3,-0.00021629,0.00040884,0.00008628,0.00015481,0.00037752,0.00028547,0
 .00020824,-0.00038365,-0.00006225,-0.00013809,0.00011982,-0.00003397,-
 0.00014208,0.00002179,-0.00004410,0.00003083,-0.00001352,0.00008724,-0
 .00004114,-0.00000635,0.00000948,-0.00000113,-0.00010756,-0.00013831,0
 .00000654,0.00000378,0.00000183,0.00000438,0.00024224,0.00012826,0.000
 07560,-0.00000570,-0.00001173,-0.00001245,0.00000664,0.00000248,0.0000
 0585,0.07357315,-0.26061543,0.12081403,0.00010307,-0.00005891,0.000130
 31,-0.08034203,0.26783859,-0.00183432,0.01054369,-0.00169363,0.0020078
 3,-0.00032046,-0.00189271,-0.00389320,0.00043271,0.00375299,0.00014457
 ,0.00074142,-0.00000365,0.00013073,-0.00003247,-0.00010537,-0.00005294
 ,-0.00024749,0.00002736,-0.00044425,-0.00044005,0.00013235,-0.00001751
 ,-0.00001544,0.00012241,0.00003496,-0.00015821,-0.00051427,0.00002241,
 0.00006399,-0.00003717,-0.00005623,0.00002564,-0.00003311,-0.00001566,
 -0.00001115,0.00001955,-0.00005184,-0.00004598,0.00001743,-0.00000859,
 -0.00000249,0.00000581,0.00003585,-0.00006908,0.00000965,0.00002478,-0
 .00000047,-0.00001569,-0.00000787,-0.00000395,0.00000714,-0.05405897,0
 .12075511,-0.09055472,-0.00057898,0.00033227,-0.00084980,0.05884731,-0
 .12994247,0.08789816,-0.01081657,-0.02310002,0.00116281,-0.00306659,0.
 00183224,-0.00408322,0.00053914,-0.00124258,0.00227494,0.00006025,0.00
 033256,-0.00009209,-0.00011133,0.00097209,-0.00051079,-0.00022369,-0.0
 0143490,0.00024801,-0.00000458,-0.00010666,0.00008665,0.00018304,-0.00
 003871,0.00013650,-0.00000646,-0.00000820,-0.00006364,-0.00040352,0.00
 022752,-0.00015074,-0.00003211,-0.00014771,0.00001524,0.00001568,-0.00
 000368,0.00000429,-0.00001058,0.00002768,0.00000186,-0.00004515,-0.000
 00125,-0.00002719,0.00001384,0.00006864,-0.00003147,-0.00002174,0.0000
 0574,-0.00002652,-0.00000304,0.00000898,-0.00000192,-0.15634342,-0.144
 00962,-0.00968218,-0.00006471,0.00006194,-0.00000827,0.00857872,0.0086
 2781,-0.00053981,0.16172018,0.00176280,0.00416219,0.00041405,0.0004436
 6,0.00130321,0.00130951,0.00193794,0.00033714,-0.00034433,-0.00059088,
 -0.00007372,-0.00029259,-0.00042690,0.00023279,-0.00016568,0.00014581,
 0.00028649,0.00013040,0.00027896,0.00028863,-0.00004481,0.00034253,0.0
 0032110,0.00007566,-0.00006178,0.00001193,0.00001212,-0.00000248,-0.00
 003770,-0.00007624,0.00008082,-0.00008202,0.00006678,0.00000813,0.0000
 0707,0.00000873,0.00009546,0.00019069,-0.00002661,-0.00000240,-0.00000
 059,0.00000250,-0.00026948,-0.00009029,-0.00010151,-0.00001050,0.00000
 443,0.00000324,-0.00000587,0.00000175,-0.00000457,-0.14711498,-0.24733
 037,0.01212762,-0.00033379,-0.00036681,0.00020760,-0.01435183,-0.01176
 440,-0.00148743,0.15792973,0.25248790,-0.00657141,-0.01015208,0.003981
 95,-0.00379170,0.00173401,0.00227730,0.00099598,-0.00176421,-0.0023242
 7,0.00029691,0.00018640,0.00007166,-0.00002630,0.00043214,0.00011087,-
 0.00012151,-0.00054736,0.00052047,-0.00002476,-0.00020242,-0.00010265,
 -0.00014188,-0.00013173,-0.00005560,-0.00004948,0.00004422,0.00010376,
 -0.00003890,-0.00001999,-0.00034626,-0.00004165,-0.00001123,0.00000303
 ,-0.00000524,0.00000096,0.00001547,-0.00007010,-0.00008541,-0.00003680
 ,-0.00002565,0.00000246,0.00000238,0.00014937,0.00007761,0.00006310,-0
 .00002170,0.00001346,0.00001514,0.00000385,0.00000148,-0.00000239,-0.0
 0915821,0.01286396,-0.02977682,-0.00041191,-0.00026933,0.00007140,0.00
 759985,0.00939063,0.00342130,0.01126684,-0.01165507,0.02208214,-0.0004
 3210,0.00072672,0.00119843,-0.00112577,0.00056381,0.00066763,0.0001962
 1,-0.00039533,-0.00027272,-0.00078381,0.00004386,-0.00006110,0.0000122
 3,0.00011099,0.00005815,0.00097034,0.00000735,-0.00000612,0.00000447,0
 .00012397,-0.00044513,-0.00004322,0.00075756,0.00009417,-0.00002292,0.
 00001200,0.00000425,-0.00004752,-0.00029697,-0.00013940,0.00009741,-0.
 00005901,0.00009416,0.00006035,0.00002364,-0.00005421,0.00002607,0.000
 05033,-0.00000973,-0.00000324,-0.00001077,-0.00000569,0.00013980,0.000
 04326,0.00008201,-0.00000010,0.00000910,-0.00001008,-0.00001823,-0.000
 00030,-0.00001042,-0.00019403,-0.00037685,-0.00092331,-0.03893331,-0.0
 6445277,-0.09108139,-0.00005914,0.00001536,0.00014595,0.00003003,0.000
 12126,0.00013463,0.23245297,0.00043334,-0.00060687,-0.00135322,-0.0006
 6410,-0.00054610,0.00044347,-0.00043809,0.00042689,-0.00022647,0.00075
 413,0.00027231,-0.00007683,-0.00001771,0.00006422,0.00002222,0.0000264
 7,0.00009246,0.00026474,0.00004985,0.00008022,-0.00025739,-0.00013499,
 -0.00074946,-0.00020199,-0.00001986,0.00005500,0.00004204,0.00037936,0
 .00005613,-0.00000240,-0.00012552,0.00010929,-0.00003383,0.00007730,0.
 00005050,-0.00010697,0.00005493,-0.00015487,0.00006775,0.00002171,0.00
 001173,-0.00001435,0.00002101,0.00017406,0.00002516,-0.00002294,0.0000
 1133,0.00000016,0.00000113,0.00000904,-0.00000860,0.00072287,-0.000462
 80,-0.00063838,-0.02987690,-0.24519329,-0.22101378,-0.00008655,0.00002
 495,-0.00001208,-0.00001768,0.00009839,0.00007015,-0.05048824,0.350387
 75,-0.00022653,-0.00055716,-0.00240593,0.00108446,-0.00141344,-0.00199
 654,0.00002478,0.00047185,-0.00023148,-0.00014697,-0.00026107,0.000397
 55,-0.00000391,-0.00011424,-0.00004337,-0.00088908,-0.00007643,-0.0003
 7190,-0.00006476,-0.00022996,0.00045327,0.00017559,-0.00008785,0.00004
 004,0.00009771,-0.00007815,-0.00003748,-0.00000786,0.00009876,0.000090
 63,0.00008513,0.00009806,0.00005364,-0.00006926,-0.00004487,0.00002219
 ,0.00014895,0.00007053,0.00008236,0.00003487,0.00000900,-0.00000768,-0
 .00006350,0.00001954,0.00005704,0.00005264,-0.00006094,-0.00001332,0.0
 0004418,-0.00000703,-0.00000958,0.00163567,-0.00028268,0.00020457,-0.0
 6738751,-0.26253379,-0.28897789,-0.00001146,0.00005870,0.00013767,-0.0
 0001935,-0.00011474,-0.00012648,0.19476353,0.17947818,0.40503876,0.000
 05339,-0.00011252,0.00030534,-0.00097072,0.00037546,0.00054790,-0.0005
 0343,0.00027237,-0.00005279,0.00036165,0.00021180,0.00029010,0.0000001
 2,0.00004838,0.00006014,-0.00082791,0.00028619,0.00090096,0.00000443,-
 0.00009592,0.00002204,-0.00023179,-0.00075407,0.00051542,0.00000882,0.
 00000800,-0.00001282,0.00076438,0.00069237,0.00003756,-0.00024962,0.00
 017716,-0.00017840,-0.00001219,-0.00004438,-0.00000015,-0.00001528,-0.
 00030749,0.00010145,-0.00002240,-0.00000438,-0.00001766,0.00035327,0.0
 0019097,0.00019364,0.00000511,-0.00000088,-0.00002296,-0.00000730,-0.0
 0001375,-0.00001321,-0.00004635,-0.00016512,-0.00041693,-0.01927360,0.
 02352016,-0.00971030,-0.00001679,-0.00003288,0.00027178,0.00002004,0.0
 0003435,0.00009250,-0.16758442,0.08409853,-0.12930640,0.56692005,-0.00
 038068,-0.00003333,0.00023635,0.00037684,-0.00035329,-0.00038419,0.001
 00843,-0.00023645,-0.00056104,-0.00044512,-0.00029129,-0.00060576,-0.0
 0003402,0.00005718,0.00010706,-0.00034341,-0.00020764,-0.00031765,0.00
 004391,0.00006282,-0.00010100,-0.00035782,0.00002133,0.00030847,-0.000
 02449,0.00001510,0.00003459,-0.00038209,-0.00002080,0.00025689,0.00029
 324,0.00002087,0.00025276,0.00002651,0.00004396,-0.00009660,0.00008844
 ,0.00023466,0.00003043,0.00006015,0.00001512,-0.00001654,-0.00029272,-
 0.00006921,-0.00023661,-0.00001018,-0.00001569,0.00000135,0.00003453,0
 .00002087,-0.00000396,0.00049198,-0.00000331,0.00038851,-0.01005072,0.
 00945681,-0.00594553,-0.00001314,0.00002530,-0.00011411,-0.00000532,-0
 .00000281,0.00001409,0.07405151,-0.10775544,0.08364878,0.09629463,0.21
 577213,-0.00054739,0.00044916,0.00093306,0.00047870,-0.00004922,-0.000
 41965,0.00079360,-0.00015561,-0.00038520,-0.00056197,0.00002658,-0.000
 22772,-0.00003082,-0.00006173,-0.00000849,0.00062777,-0.00035277,-0.00
 149487,-0.00001878,0.00001927,-0.00019788,-0.00063013,0.00064504,0.000
 15639,0.00003563,-0.00006145,-0.00000361,-0.00093448,-0.00047481,0.000
 24374,0.00037870,-0.00014812,0.00018888,0.00001457,0.00004993,-0.00008
 534,0.00013592,0.00032112,0.00011905,0.00008407,0.00002188,-0.00000373
 ,-0.00017056,-0.00006259,-0.00024646,0.00003745,-0.00005606,0.00001062
 ,0.00005526,0.00001126,-0.00000856,0.00019764,-0.00014597,0.00001669,-
 0.02645917,0.03382967,-0.01665052,0.00002638,0.00002374,0.00004413,-0.
 00001389,-0.00008049,-0.00001153,-0.07281440,0.04938405,-0.10840148,-0
 .01222530,-0.16888225,0.19417580,-0.00030748,-0.00052608,-0.00047653,0
 .00047928,0.00010660,0.00078340,-0.00028980,-0.00018114,-0.00003951,0.
 00031362,0.00012281,-0.00006697,-0.00002569,-0.00001296,-0.00005838,-0
 .00034745,0.00016274,0.00144347,-0.00000436,0.00003781,-0.00014020,-0.
 00028238,0.00071365,0.00008959,-0.00001622,-0.00002989,0.00001075,0.00
 015540,-0.00048875,0.00024995,-0.00042478,-0.00002803,-0.00046468,0.00
 002790,0.00003992,-0.00002985,-0.00026938,-0.00031047,-0.00013907,0.00
 001990,0.00001323,0.00000287,0.00021993,0.00000726,-0.00013002,0.00003
 076,-0.00001620,-0.00000494,0.00002114,-0.00001153,0.00000929,-0.00025
 503,0.00006295,0.00011745,-0.00247685,0.00032259,0.00008380,-0.0000031
 1,-0.00000419,-0.00010598,-0.00000745,-0.00001056,-0.00003953,-0.02474
 206,-0.00474805,0.00004908,-0.37872945,-0.16043046,0.11154119,0.406913
 57,0.00029227,-0.00034612,-0.00044533,-0.00028104,-0.00013366,-0.00015
 067,-0.00046078,-0.00027845,-0.00013456,-0.00021674,-0.00056412,0.0001
 4762,0.00002410,0.00004031,0.00006367,0.00010711,0.00074282,0.00024006
 ,0.00002972,-0.00005593,0.00022079,0.00047622,-0.00009043,-0.00052787,
 0.00000195,-0.00000558,-0.00001868,0.00076617,-0.00003484,-0.00034763,
 -0.00051599,0.00004629,-0.00056649,-0.00009614,-0.00015690,0.00026894,
 -0.00011327,-0.00029589,-0.00006114,-0.00009576,-0.00003589,0.00004030
 ,0.00068870,0.00017395,0.00065623,0.00000131,-0.00001798,-0.00003184,-
 0.00003438,-0.00004550,0.00001381,-0.00035835,0.00004503,-0.00004717,-
 0.00021419,-0.00141387,0.00075297,0.00002841,-0.00001078,0.00000851,0.
 00002141,0.00001500,0.00000727,0.03941951,0.00354456,0.00190894,-0.204
 67900,-0.11675690,0.08574932,0.16520876,0.11563486,0.00038290,-0.00050
 246,-0.00015056,-0.00076501,0.00049141,-0.00156505,-0.00039961,0.00032
 284,-0.00000092,0.00035708,0.00012599,0.00015252,0.00000366,0.00007753
 ,0.00006511,0.00086801,-0.00010914,-0.00123866,0.00005687,0.00000332,-
 0.00009666,0.00096180,-0.00113980,-0.00011782,-0.00003255,0.00011467,0
 .00004618,0.00092226,0.00075473,-0.00005838,-0.00021893,-0.00003153,-0
 .00004535,0.00003692,0.00001337,-0.00001196,-0.00017305,-0.00029473,-0
 .00022461,-0.00010924,-0.00002492,0.00000499,0.00027961,0.00015093,0.0
 0001649,-0.00009161,0.00009985,0.00000209,-0.00010028,0.00001565,0.000
 02684,-0.00032034,0.00003042,-0.00031575,-0.00622781,0.00149355,0.0007
 3920,-0.00000833,-0.00001475,0.00010417,0.00005394,0.00003584,0.000042
 84,-0.03140920,-0.00585164,-0.00395461,0.14861810,0.09198593,-0.067743
 32,-0.11268520,-0.08774707,0.07432320\\0.00012189,-0.00000769,0.000007
 11,-0.00007412,-0.00001489,-0.00004313,-0.00015812,0.00013969,-0.00013
 761,0.00009536,-0.00002636,0.00006785,-0.00001301,0.00000071,0.0000087
 3,0.00000981,-0.00003971,0.00012867,0.00000095,0.00003089,0.00007879,-
 0.00008899,-0.00004835,-0.00009514,-0.00004479,0.00006337,-0.00005152,
 -0.00003663,0.00002153,-0.00008153,0.00006119,0.00003942,0.00008512,0.
 00004740,-0.00003702,0.00004415,0.00005220,-0.00002666,-0.00000286,0.0
 0001513,0.00000057,0.00001567,-0.00000946,-0.00007751,0.00009244,-0.00
 005969,0.00009767,-0.00005131,-0.00001659,0.00001092,0.00002537,-0.000
 05279,-0.00023093,0.00001456,0.00006050,0.00029148,0.00020980,0.000061
 89,0.00002684,0.00001078,0.00004083,0.00009432,-0.00003684,-0.00014772
 ,-0.00030184,-0.00046333,0.00020885,0.00003870,0.00018063,-0.00007409,
 -0.00004514,-0.00000642\\\@


 CONTRAIWISE...CONTINUED TWEEDLEDEE, IF IT WAS SO, IT MIGHT BE,
 AND IF IT WERE SO, IT WOULD BE.....
 BUT AS IT ISN'T, IT AIN'T....
 THAT'S LOGIC.....
 ALICE THROUGH THE LOOKING GLASS
 Job cpu time:       0 days  1 hours 43 minutes 16.2 seconds.
 Elapsed time:       0 days  0 hours  5 minutes 10.6 seconds.
 File lengths (MBytes):  RWF=   1504 Int=      0 D2E=      0 Chk=     32 Scr=     32
 Normal termination of Gaussian 16 at Tue Feb 19 10:54:54 2019.
