 Entering Gaussian System, Link 0=g16
 Input=rxn908loosebasis2.com
 Output=rxn908loosebasis2.log
 Initial command:
 /shared/centos7/gaussian/g16/l1.exe "/scratch/dinius.ab/QMscratch/Gau-360119.inp" -scrdir="/scratch/dinius.ab/QMscratch/"
 Default is to use a total of  20 processors:
                               20 via shared-memory
                                1 via Linda
 Entering Link 1 = /shared/centos7/gaussian/g16/l1.exe PID=    360120.
  
 Copyright (c) 1988,1990,1992,1993,1995,1998,2003,2009,2016,
            Gaussian, Inc.  All Rights Reserved.
  
 This is part of the Gaussian(R) 16 program.  It is based on
 the Gaussian(R) 09 system (copyright 2009, Gaussian, Inc.),
 the Gaussian(R) 03 system (copyright 2003, Gaussian, Inc.),
 the Gaussian(R) 98 system (copyright 1998, Gaussian, Inc.),
 the Gaussian(R) 94 system (copyright 1995, Gaussian, Inc.),
 the Gaussian 92(TM) system (copyright 1992, Gaussian, Inc.),
 the Gaussian 90(TM) system (copyright 1990, Gaussian, Inc.),
 the Gaussian 88(TM) system (copyright 1988, Gaussian, Inc.),
 the Gaussian 86(TM) system (copyright 1986, Carnegie Mellon
 University), and the Gaussian 82(TM) system (copyright 1983,
 Carnegie Mellon University). Gaussian is a federally registered
 trademark of Gaussian, Inc.
  
 This software contains proprietary and confidential information,
 including trade secrets, belonging to Gaussian, Inc.
  
 This software is provided under written license and may be
 used, copied, transmitted, or stored only in accord with that
 written license.
  
 The following legend is applicable only to US Government
 contracts under FAR:
  
                    RESTRICTED RIGHTS LEGEND
  
 Use, reproduction and disclosure by the US Government is
 subject to restrictions as set forth in subparagraphs (a)
 and (c) of the Commercial Computer Software - Restricted
 Rights clause in FAR 52.227-19.
  
 Gaussian, Inc.
 340 Quinnipiac St., Bldg. 40, Wallingford CT 06492
  
  
 ---------------------------------------------------------------
 Warning -- This program may not be used in any manner that
 competes with the business of Gaussian, Inc. or will provide
 assistance to any competitor of Gaussian, Inc.  The licensee
 of this program is prohibited from giving any competitor of
 Gaussian, Inc. access to this program.  By using this program,
 the user acknowledges that Gaussian, Inc. is engaged in the
 business of creating and licensing software in the field of
 computational chemistry and represents and warrants to the
 licensee that it is not a competitor of Gaussian, Inc. and that
 it will not use this program in any manner prohibited above.
 ---------------------------------------------------------------
  

 Cite this work as:
 Gaussian 16, Revision A.03,
 M. J. Frisch, G. W. Trucks, H. B. Schlegel, G. E. Scuseria, 
 M. A. Robb, J. R. Cheeseman, G. Scalmani, V. Barone, 
 G. A. Petersson, H. Nakatsuji, X. Li, M. Caricato, A. V. Marenich, 
 J. Bloino, B. G. Janesko, R. Gomperts, B. Mennucci, H. P. Hratchian, 
 J. V. Ortiz, A. F. Izmaylov, J. L. Sonnenberg, D. Williams-Young, 
 F. Ding, F. Lipparini, F. Egidi, J. Goings, B. Peng, A. Petrone, 
 T. Henderson, D. Ranasinghe, V. G. Zakrzewski, J. Gao, N. Rega, 
 G. Zheng, W. Liang, M. Hada, M. Ehara, K. Toyota, R. Fukuda, 
 J. Hasegawa, M. Ishida, T. Nakajima, Y. Honda, O. Kitao, H. Nakai, 
 T. Vreven, K. Throssell, J. A. Montgomery, Jr., J. E. Peralta, 
 F. Ogliaro, M. J. Bearpark, J. J. Heyd, E. N. Brothers, K. N. Kudin, 
 V. N. Staroverov, T. A. Keith, R. Kobayashi, J. Normand, 
 K. Raghavachari, A. P. Rendell, J. C. Burant, S. S. Iyengar, 
 J. Tomasi, M. Cossi, J. M. Millam, M. Klene, C. Adamo, R. Cammi, 
 J. W. Ochterski, R. L. Martin, K. Morokuma, O. Farkas, 
 J. B. Foresman, and D. J. Fox, Gaussian, Inc., Wallingford CT, 2016.
 
 ******************************************
 Gaussian 16:  EM64L-G16RevA.03 25-Dec-2016
                19-Mar-2019 
 ******************************************
 ----------------------------------------------------------------------
 # m062x/6-31G(d,p) Opt=(TS,Loose,maxcycle=1000,CalcFC,NoEigenTest) Int
 (Grid=SG1) freq
 ----------------------------------------------------------------------
 1/5=1,6=1000,7=-1,10=4,11=1,18=20,26=2,38=1/1,3;
 2/9=110,12=2,17=6,18=5,40=1/2;
 3/5=1,6=6,7=101,11=2,25=1,30=1,71=2,74=-55,75=1,140=1/1,2,3;
 4//1;
 5/5=2,38=5/2;
 8/6=4,10=90,11=11/1;
 11/6=1,8=1,9=11,15=111,16=1/1,2,10;
 10/6=1,13=1/2;
 6/7=2,8=2,9=2,10=2,28=1/1;
 7/10=1,18=20,25=1/1,2,3,16;
 1/5=1,6=1000,7=-1,10=4,11=1,18=20,26=2/3(2);
 2/9=110/2;
 99//99;
 2/9=110/2;
 3/5=1,6=6,7=101,11=2,25=1,30=1,71=1,74=-55,75=1/1,2,3;
 4/5=5,16=3,69=1/1;
 5/5=2,38=5/2;
 7//1,2,3,16;
 1/5=1,6=1000,7=-1,11=1,18=20,26=2/3(-5);
 2/9=110/2;
 6/7=2,8=2,9=2,10=2,19=2,28=1/1;
 99/9=1/99;
 -------
 Titlecd
 -------
 Symbolic Z-matrix:
 Charge =  0 Multiplicity = 2
 C                     1.4211    1.22672   0.43541 
 C                     0.74559   0.04564   0.78342 
 C                     0.67624   2.24473  -0.26545 
 C                    -0.63425   2.06872  -0.57854 
 H                     1.18867   3.1626   -0.5368 
 C                    -0.61262  -0.15915   0.45728 
 H                     1.28549  -0.73072   1.31932 
 C                    -1.32504   0.86372  -0.23274 
 H                    -1.18323   2.84314  -1.10589 
 C                    -1.29328  -1.36029   0.793 
 C                    -2.61426  -1.53327   0.4642 
 H                    -0.74645  -2.13823   1.31797 
 C                    -3.31874  -0.51409  -0.2168 
 H                    -3.12242  -2.45562   0.72392 
 C                    -2.68382   0.65834  -0.55726 
 H                    -3.22074   1.44113  -1.08486 
 H                    -4.36203  -0.66046  -0.47505 
 C                     2.78019   1.41439   0.74294 
 H                     2.90806   0.24839  -0.44911 
 H                     3.34263   0.65636   1.27393 
 H                     3.28853   2.33171   0.47406 
 O                     3.05987  -1.48365  -0.62987 
 O                     1.96289  -2.36246  -0.88165 
 H                     1.87005  -2.79252  -0.02038 
 
 Add virtual bond connecting atoms H19        and C18        Dist= 3.16D+00.
 Add virtual bond connecting atoms H19        and H20        Dist= 3.45D+00.
 Add virtual bond connecting atoms O22        and H19        Dist= 3.30D+00.

 GradGradGradGradGradGradGradGradGradGradGradGradGradGradGradGradGradGrad
 Berny optimization.
 Initialization pass.
                           ----------------------------
                           !    Initial Parameters    !
                           ! (Angstroms and Degrees)  !
 --------------------------                            --------------------------
 ! Name  Definition              Value          Derivative Info.                !
 --------------------------------------------------------------------------------
 ! R1    R(1,2)                  1.4044         calculate D2E/DX2 analytically  !
 ! R2    R(1,3)                  1.443          calculate D2E/DX2 analytically  !
 ! R3    R(1,18)                 1.406          calculate D2E/DX2 analytically  !
 ! R4    R(2,6)                  1.4118         calculate D2E/DX2 analytically  !
 ! R5    R(2,7)                  1.0869         calculate D2E/DX2 analytically  !
 ! R6    R(3,4)                  1.3588         calculate D2E/DX2 analytically  !
 ! R7    R(3,5)                  1.0857         calculate D2E/DX2 analytically  !
 ! R8    R(4,8)                  1.4314         calculate D2E/DX2 analytically  !
 ! R9    R(4,9)                  1.0859         calculate D2E/DX2 analytically  !
 ! R10   R(6,8)                  1.4248         calculate D2E/DX2 analytically  !
 ! R11   R(6,10)                 1.4208         calculate D2E/DX2 analytically  !
 ! R12   R(8,15)                 1.412          calculate D2E/DX2 analytically  !
 ! R13   R(10,11)                1.3722         calculate D2E/DX2 analytically  !
 ! R14   R(10,12)                1.0862         calculate D2E/DX2 analytically  !
 ! R15   R(11,13)                1.4138         calculate D2E/DX2 analytically  !
 ! R16   R(11,14)                1.0846         calculate D2E/DX2 analytically  !
 ! R17   R(13,15)                1.3761         calculate D2E/DX2 analytically  !
 ! R18   R(13,17)                1.0847         calculate D2E/DX2 analytically  !
 ! R19   R(15,16)                1.086          calculate D2E/DX2 analytically  !
 ! R20   R(18,19)                1.6724         calculate D2E/DX2 analytically  !
 ! R21   R(18,20)                1.083          calculate D2E/DX2 analytically  !
 ! R22   R(18,21)                1.0827         calculate D2E/DX2 analytically  !
 ! R23   R(19,20)                1.8232         calculate D2E/DX2 analytically  !
 ! R24   R(19,22)                1.7481         calculate D2E/DX2 analytically  !
 ! R25   R(22,23)                1.428          calculate D2E/DX2 analytically  !
 ! R26   R(23,24)                0.9671         calculate D2E/DX2 analytically  !
 ! A1    A(2,1,3)              117.7331         calculate D2E/DX2 analytically  !
 ! A2    A(2,1,18)             121.5326         calculate D2E/DX2 analytically  !
 ! A3    A(3,1,18)             120.7311         calculate D2E/DX2 analytically  !
 ! A4    A(1,2,6)              121.8365         calculate D2E/DX2 analytically  !
 ! A5    A(1,2,7)              118.9431         calculate D2E/DX2 analytically  !
 ! A6    A(6,2,7)              119.2204         calculate D2E/DX2 analytically  !
 ! A7    A(1,3,4)              121.2212         calculate D2E/DX2 analytically  !
 ! A8    A(1,3,5)              118.3061         calculate D2E/DX2 analytically  !
 ! A9    A(4,3,5)              120.4725         calculate D2E/DX2 analytically  !
 ! A10   A(3,4,8)              121.2536         calculate D2E/DX2 analytically  !
 ! A11   A(3,4,9)              120.47           calculate D2E/DX2 analytically  !
 ! A12   A(8,4,9)              118.2755         calculate D2E/DX2 analytically  !
 ! A13   A(2,6,8)              119.2621         calculate D2E/DX2 analytically  !
 ! A14   A(2,6,10)             121.9337         calculate D2E/DX2 analytically  !
 ! A15   A(8,6,10)             118.8039         calculate D2E/DX2 analytically  !
 ! A16   A(4,8,6)              118.6902         calculate D2E/DX2 analytically  !
 ! A17   A(4,8,15)             122.0962         calculate D2E/DX2 analytically  !
 ! A18   A(6,8,15)             119.2133         calculate D2E/DX2 analytically  !
 ! A19   A(6,10,11)            120.7383         calculate D2E/DX2 analytically  !
 ! A20   A(6,10,12)            118.5871         calculate D2E/DX2 analytically  !
 ! A21   A(11,10,12)           120.6744         calculate D2E/DX2 analytically  !
 ! A22   A(10,11,13)           120.2801         calculate D2E/DX2 analytically  !
 ! A23   A(10,11,14)           120.0553         calculate D2E/DX2 analytically  !
 ! A24   A(13,11,14)           119.6645         calculate D2E/DX2 analytically  !
 ! A25   A(11,13,15)           120.2293         calculate D2E/DX2 analytically  !
 ! A26   A(11,13,17)           119.7804         calculate D2E/DX2 analytically  !
 ! A27   A(15,13,17)           119.9897         calculate D2E/DX2 analytically  !
 ! A28   A(8,15,13)            120.7346         calculate D2E/DX2 analytically  !
 ! A29   A(8,15,16)            118.8537         calculate D2E/DX2 analytically  !
 ! A30   A(13,15,16)           120.4113         calculate D2E/DX2 analytically  !
 ! A31   A(1,18,19)             79.9182         calculate D2E/DX2 analytically  !
 ! A32   A(1,18,20)            121.0516         calculate D2E/DX2 analytically  !
 ! A33   A(1,18,21)            120.8384         calculate D2E/DX2 analytically  !
 ! A34   A(19,18,21)           112.1978         calculate D2E/DX2 analytically  !
 ! A35   A(20,18,21)           118.0965         calculate D2E/DX2 analytically  !
 ! A36   A(18,19,22)           140.4587         calculate D2E/DX2 analytically  !
 ! A37   A(20,19,22)           107.3818         calculate D2E/DX2 analytically  !
 ! A38   A(19,22,23)           124.1465         calculate D2E/DX2 analytically  !
 ! A39   A(22,23,24)           100.9755         calculate D2E/DX2 analytically  !
 ! D1    D(3,1,2,6)              0.4829         calculate D2E/DX2 analytically  !
 ! D2    D(3,1,2,7)           -179.4784         calculate D2E/DX2 analytically  !
 ! D3    D(18,1,2,6)          -178.8775         calculate D2E/DX2 analytically  !
 ! D4    D(18,1,2,7)             1.1612         calculate D2E/DX2 analytically  !
 ! D5    D(2,1,3,4)              0.0223         calculate D2E/DX2 analytically  !
 ! D6    D(2,1,3,5)            179.8485         calculate D2E/DX2 analytically  !
 ! D7    D(18,1,3,4)           179.3881         calculate D2E/DX2 analytically  !
 ! D8    D(18,1,3,5)            -0.7857         calculate D2E/DX2 analytically  !
 ! D9    D(2,1,18,19)           70.4089         calculate D2E/DX2 analytically  !
 ! D10   D(2,1,18,20)           -1.0275         calculate D2E/DX2 analytically  !
 ! D11   D(2,1,18,21)         -179.6675         calculate D2E/DX2 analytically  !
 ! D12   D(3,1,18,19)         -108.9325         calculate D2E/DX2 analytically  !
 ! D13   D(3,1,18,20)          179.6311         calculate D2E/DX2 analytically  !
 ! D14   D(3,1,18,21)            0.9911         calculate D2E/DX2 analytically  !
 ! D15   D(1,2,6,8)             -0.618          calculate D2E/DX2 analytically  !
 ! D16   D(1,2,6,10)           179.1659         calculate D2E/DX2 analytically  !
 ! D17   D(7,2,6,8)            179.3432         calculate D2E/DX2 analytically  !
 ! D18   D(7,2,6,10)            -0.8729         calculate D2E/DX2 analytically  !
 ! D19   D(1,3,4,8)             -0.3822         calculate D2E/DX2 analytically  !
 ! D20   D(1,3,4,9)            179.9742         calculate D2E/DX2 analytically  !
 ! D21   D(5,3,4,8)            179.7953         calculate D2E/DX2 analytically  !
 ! D22   D(5,3,4,9)              0.1517         calculate D2E/DX2 analytically  !
 ! D23   D(3,4,8,6)              0.2439         calculate D2E/DX2 analytically  !
 ! D24   D(3,4,8,15)          -179.5632         calculate D2E/DX2 analytically  !
 ! D25   D(9,4,8,6)            179.8951         calculate D2E/DX2 analytically  !
 ! D26   D(9,4,8,15)             0.0881         calculate D2E/DX2 analytically  !
 ! D27   D(2,6,8,4)              0.2493         calculate D2E/DX2 analytically  !
 ! D28   D(2,6,8,15)          -179.938          calculate D2E/DX2 analytically  !
 ! D29   D(10,6,8,4)          -179.5415         calculate D2E/DX2 analytically  !
 ! D30   D(10,6,8,15)            0.2713         calculate D2E/DX2 analytically  !
 ! D31   D(2,6,10,11)          179.9871         calculate D2E/DX2 analytically  !
 ! D32   D(2,6,10,12)            0.1422         calculate D2E/DX2 analytically  !
 ! D33   D(8,6,10,11)           -0.228          calculate D2E/DX2 analytically  !
 ! D34   D(8,6,10,12)          179.9271         calculate D2E/DX2 analytically  !
 ! D35   D(4,8,15,13)          179.6832         calculate D2E/DX2 analytically  !
 ! D36   D(4,8,15,16)           -0.0837         calculate D2E/DX2 analytically  !
 ! D37   D(6,8,15,13)           -0.1229         calculate D2E/DX2 analytically  !
 ! D38   D(6,8,15,16)         -179.8898         calculate D2E/DX2 analytically  !
 ! D39   D(6,10,11,13)           0.0318         calculate D2E/DX2 analytically  !
 ! D40   D(6,10,11,14)         179.8633         calculate D2E/DX2 analytically  !
 ! D41   D(12,10,11,13)        179.8734         calculate D2E/DX2 analytically  !
 ! D42   D(12,10,11,14)         -0.295          calculate D2E/DX2 analytically  !
 ! D43   D(10,11,13,15)          0.1232         calculate D2E/DX2 analytically  !
 ! D44   D(10,11,13,17)        179.8397         calculate D2E/DX2 analytically  !
 ! D45   D(14,11,13,15)       -179.709          calculate D2E/DX2 analytically  !
 ! D46   D(14,11,13,17)          0.0075         calculate D2E/DX2 analytically  !
 ! D47   D(11,13,15,8)          -0.0757         calculate D2E/DX2 analytically  !
 ! D48   D(11,13,15,16)        179.6876         calculate D2E/DX2 analytically  !
 ! D49   D(17,13,15,8)        -179.7916         calculate D2E/DX2 analytically  !
 ! D50   D(17,13,15,16)         -0.0283         calculate D2E/DX2 analytically  !
 ! D51   D(1,18,19,22)         -95.867          calculate D2E/DX2 analytically  !
 ! D52   D(21,18,19,22)        144.8065         calculate D2E/DX2 analytically  !
 ! D53   D(18,19,22,23)         96.8849         calculate D2E/DX2 analytically  !
 ! D54   D(20,19,22,23)        113.8824         calculate D2E/DX2 analytically  !
 ! D55   D(19,22,23,24)       -106.688          calculate D2E/DX2 analytically  !
 --------------------------------------------------------------------------------
 Trust Radius=3.00D-01 FncErr=1.00D-05 GrdErr=1.00D-04 EigMax=2.50D+02 EigMin=1.00D-04
 Number of steps in this run=    144 maximum allowed number of steps=    144.
 Search for a saddle point of order  1.
 GradGradGradGradGradGradGradGradGradGradGradGradGradGradGradGradGradGrad

                          Input orientation:                          
 ---------------------------------------------------------------------
 Center     Atomic      Atomic             Coordinates (Angstroms)
 Number     Number       Type             X           Y           Z
 ---------------------------------------------------------------------
      1          6           0        1.421100    1.226720    0.435410
      2          6           0        0.745590    0.045640    0.783420
      3          6           0        0.676240    2.244730   -0.265450
      4          6           0       -0.634250    2.068720   -0.578540
      5          1           0        1.188670    3.162600   -0.536800
      6          6           0       -0.612620   -0.159150    0.457280
      7          1           0        1.285490   -0.730720    1.319320
      8          6           0       -1.325040    0.863720   -0.232740
      9          1           0       -1.183230    2.843140   -1.105890
     10          6           0       -1.293280   -1.360290    0.793000
     11          6           0       -2.614260   -1.533270    0.464200
     12          1           0       -0.746450   -2.138230    1.317970
     13          6           0       -3.318740   -0.514090   -0.216800
     14          1           0       -3.122420   -2.455620    0.723920
     15          6           0       -2.683820    0.658340   -0.557260
     16          1           0       -3.220740    1.441130   -1.084860
     17          1           0       -4.362030   -0.660460   -0.475050
     18          6           0        2.780190    1.414390    0.742940
     19          1           0        2.908060    0.248390   -0.449110
     20          1           0        3.342630    0.656360    1.273930
     21          1           0        3.288530    2.331710    0.474060
     22          8           0        3.059870   -1.483650   -0.629870
     23          8           0        1.962890   -2.362460   -0.881650
     24          1           0        1.870050   -2.792520   -0.020380
 ---------------------------------------------------------------------
                    Distance matrix (angstroms):
                    1          2          3          4          5
     1  C    0.000000
     2  C    1.404413   0.000000
     3  C    1.443040   2.437403   0.000000
     4  C    2.441623   2.802097   1.358819   0.000000
     5  H    2.178726   3.413904   1.085680   2.126347   0.000000
     6  C    2.461124   1.411751   2.821726   2.456989   3.907283
     7  H    2.152036   1.086929   3.425782   3.888977   4.314220
     8  C    2.849470   2.447314   2.431744   1.431361   3.419947
     9  H    3.430882   3.887910   2.126514   1.085911   2.460046
    10  C    3.766743   2.476635   4.242110   3.751473   5.327755
    11  C    4.889019   3.726050   5.062911   4.240528   6.124988
    12  H    4.098789   2.698373   4.872536   4.616034   5.940005
    13  C    5.091354   4.222856   4.855236   3.742760   5.825564
    14  H    5.855462   4.606663   6.123884   5.325133   7.193004
    15  C    4.261316   3.732784   3.727169   2.488044   4.611715
    16  H    4.889159   4.601047   4.062470   2.709273   4.765157
    17  H    6.151014   5.307552   5.819641   4.621199   6.740168
    18  C    1.406030   2.452491   2.476473   3.719255   2.688291
    19  H    1.987600   2.497301   3.000021   3.984760   3.384762
    20  H    2.172718   2.712599   3.464426   4.608902   3.768226
    21  H    2.170205   3.433419   2.716339   4.070053   2.474192
    22  O    3.341630   3.113199   4.440193   5.125280   5.009760
    23  O    3.861398   3.170682   4.823004   5.145131   5.589689
    24  H    4.069839   3.156843   5.182579   5.496791   6.016180
                    6          7          8          9         10
     6  C    0.000000
     7  H    2.161626   0.000000
     8  C    1.424757   3.430160   0.000000
     9  H    3.432614   4.974806   2.168088   0.000000
    10  C    1.420825   2.706183   2.449361   4.613753   0.000000
    11  C    2.427924   4.072268   2.809515   4.864771   1.372232
    12  H    2.162280   2.471814   3.427998   5.556971   1.086189
    13  C    2.811308   4.858552   2.423521   4.076994   2.416245
    14  H    3.412326   4.770687   3.894071   5.931738   2.133137
    15  C    2.446927   4.605047   1.412012   2.706680   2.798512
    16  H    3.426570   5.550056   2.157125   2.473362   3.884510
    17  H    3.895976   5.926144   3.406633   4.772624   3.393367
    18  C    3.750839   2.677282   4.255362   4.600891   4.928946
    19  H    3.658254   2.592052   4.283058   4.889043   4.667113
    20  H    4.120191   2.481507   4.909195   5.561381   5.078369
    21  H    4.628567   3.755677   4.892810   4.770161   5.892841
    22  O    4.052577   2.741290   4.989518   6.078783   4.581451
    23  O    3.644250   2.822360   4.651860   6.086594   3.796240
    24  H    3.650541   2.527355   4.860225   6.500886   3.566445
                   11         12         13         14         15
    11  C    0.000000
    12  H    2.140938   0.000000
    13  C    1.413782   3.407349   0.000000
    14  H    1.084625   2.469588   2.166341   0.000000
    15  C    2.418961   3.884674   1.376092   3.395665   0.000000
    16  H    3.407999   4.970666   2.141499   4.297210   1.086004
    17  H    2.167646   4.297807   1.084699   2.489330   2.135973
    18  C    6.153575   5.038746   6.468159   7.058197   5.667234
    19  H    5.874050   4.708925   6.277610   6.712254   5.607930
    20  H    6.398022   4.953004   6.925755   7.196096   6.298520
    21  H    7.055572   6.080593   7.227163   8.005076   6.287508
    22  O    5.778858   4.325578   6.465086   6.402982   6.130528
    23  O    4.842434   3.497017   5.635079   5.333565   5.551790
    24  H    4.682901   3.010872   5.670394   5.058877   5.738851
                   16         17         18         19         20
    16  H    0.000000
    17  H    2.468014   0.000000
    18  C    6.273175   7.536565   0.000000
    19  H    6.276065   7.326724   1.672390   0.000000
    20  H    7.018374   8.009665   1.083004   1.823227   0.000000
    21  H    6.752330   8.269520   1.082674   2.310243   1.857287
    22  O    6.943156   7.469017   3.218923   1.748051   2.878203
    23  O    6.432621   6.562525   4.191881   2.810156   3.957712
    24  H    6.706195   6.602365   4.371396   3.241667   3.967178
                   21         22         23         24
    21  H    0.000000
    22  O    3.978432   0.000000
    23  O    5.062658   1.427958   0.000000
    24  H    5.339877   1.870906   0.967139   0.000000
 Stoichiometry    C11H11O2(2)
 Framework group  C1[X(C11H11O2)]
 Deg. of freedom    66
 Full point group                 C1      NOp   1
 Largest Abelian subgroup         C1      NOp   1
 Largest concise Abelian subgroup C1      NOp   1
                         Standard orientation:                         
 ---------------------------------------------------------------------
 Center     Atomic      Atomic             Coordinates (Angstroms)
 Number     Number       Type             X           Y           Z
 ---------------------------------------------------------------------
      1          6           0       -1.432706   -1.199635    0.433681
      2          6           0       -0.744289   -0.025251    0.779051
      3          6           0       -0.698385   -2.228376   -0.262615
      4          6           0        0.614563   -2.068408   -0.574012
      5          1           0       -1.220845   -3.141189   -0.531892
      6          6           0        0.616727    0.162906    0.454594
      7          1           0       -1.276157    0.758975    1.311519
      8          6           0        1.318536   -0.870288   -0.230903
      9          1           0        1.155517   -2.850770   -1.097921
     10          6           0        1.310544    1.357249    0.787618
     11          6           0        2.633972    1.514017    0.460539
     12          1           0        0.771783    2.143099    1.309139
     13          6           0        3.327870    0.484633   -0.215963
     14          1           0        3.152234    2.431320    0.718164
     15          6           0        2.680127   -0.681542   -0.553741
     16          1           0        3.208927   -1.472137   -1.077893
     17          1           0        4.373203    0.618202   -0.472885
     18          6           0       -2.794375   -1.370724    0.739472
     19          1           0       -2.906861   -0.207201   -0.456543
     20          1           0       -3.348983   -0.604584    1.267050
     21          1           0       -3.312743   -2.283025    0.472671
     22          8           0       -3.038502    1.525870   -0.643137
     23          8           0       -1.931097    2.391234   -0.895854
     24          1           0       -1.834785    2.822988   -0.035814
 ---------------------------------------------------------------------
 Rotational constants (GHZ):           1.1021665           0.6039501           0.4345871
 Standard basis: 6-31G(d,p) (6D, 7F)
 There are   250 symmetry adapted cartesian basis functions of A   symmetry.
 There are   250 symmetry adapted basis functions of A   symmetry.
   250 basis functions,   441 primitive gaussians,   250 cartesian basis functions
    47 alpha electrons       46 beta electrons
       nuclear repulsion energy       730.4047142115 Hartrees.
 NAtoms=   24 NActive=   24 NUniq=   24 SFac= 1.00D+00 NAtFMM=   60 NAOKFM=F Big=F
 Integral buffers will be    131072 words long.
 Raffenetti 2 integral format.
 Two-electron integral symmetry is turned on.
 One-electron integrals computed using PRISM.
 NBasis=   250 RedAO= T EigKep=  2.88D-04  NBF=   250
 NBsUse=   250 1.00D-06 EigRej= -1.00D+00 NBFU=   250
 ExpMin= 1.61D-01 ExpMax= 5.48D+03 ExpMxC= 8.25D+02 IAcc=1 IRadAn=         1 AccDes= 0.00D+00
 Harris functional with IExCor= 1009 and IRadAn=       1 diagonalized for initial guess.
 HarFok:  IExCor= 1009 AccDes= 0.00D+00 IRadAn=         1 IDoV= 1 UseB2=F ITyADJ=14
 ICtDFT=  3500011 ScaDFX=  1.000000  1.000000  1.000000  1.000000
 FoFCou: FMM=F IPFlag=           0 FMFlag=      100000 FMFlg1=           0
         NFxFlg=           0 DoJE=T BraDBF=F KetDBF=T FulRan=T
         wScrn=  0.000000 ICntrl=       500 IOpCl=  0 I1Cent=   200000004 NGrid=           0
         NMat0=    1 NMatS0=      1 NMatT0=    0 NMatD0=    1 NMtDS0=    0 NMtDT0=    0
 Petite list used in FoFCou.
 Initial guess <Sx>= 0.0000 <Sy>= 0.0000 <Sz>= 0.5000 <S**2>= 0.7500 S= 0.5000
 Requested convergence on RMS density matrix=1.00D-08 within 128 cycles.
 Requested convergence on MAX density matrix=1.00D-06.
 Requested convergence on             energy=1.00D-06.
 No special actions if energy rises.
 Restarting incremental Fock formation.
 SCF Done:  E(UM062X) =  -575.750670878     A.U. after   24 cycles
            NFock= 24  Conv=0.99D-08     -V/T= 2.0090
 <Sx>= 0.0000 <Sy>= 0.0000 <Sz>= 0.5000 <S**2>= 0.8350 S= 0.5416
 <L.S>= 0.000000000000E+00
 Annihilation of the first spin contaminant:
 S**2 before annihilation     0.8350,   after     0.7519
 DoSCS=F DFT=T ScalE2(SS,OS)=  1.000000  1.000000
 Range of M.O.s used for correlation:     1   250
 NBasis=   250 NAE=    47 NBE=    46 NFC=     0 NFV=     0
 NROrb=    250 NOA=    47 NOB=    46 NVA=   203 NVB=   204
 Symmetrizing basis deriv contribution to polar:
 IMax=3 JMax=2 DiffMx= 0.00D+00
 G2DrvN: will do    25 centers at a time, making    1 passes.
 Calling FoFCou, ICntrl=  3107 FMM=F I1Cent=   0 AccDes= 0.00D+00.
 End of G2Drv F.D. properties file   721 does not exist.
 End of G2Drv F.D. properties file   722 does not exist.
 End of G2Drv F.D. properties file   788 does not exist.
          IDoAtm=111111111111111111111111
          Differentiating once with respect to nuclear coordinates.
 Keep R1 and R2 ints in memory in canonical form, NReq=1005959319.
          There are    75 degrees of freedom in the 1st order CPHF.  IDoFFX=6 NUNeed=     0.
     69 vectors produced by pass  0 Test12= 2.52D-14 1.33D-09 XBig12= 2.48D-01 1.84D-01.
 AX will form    69 AO Fock derivatives at one time.
     69 vectors produced by pass  1 Test12= 2.52D-14 1.33D-09 XBig12= 3.13D-02 3.76D-02.
     69 vectors produced by pass  2 Test12= 2.52D-14 1.33D-09 XBig12= 2.03D-03 8.18D-03.
     69 vectors produced by pass  3 Test12= 2.52D-14 1.33D-09 XBig12= 3.58D-05 1.28D-03.
     69 vectors produced by pass  4 Test12= 2.52D-14 1.33D-09 XBig12= 5.24D-07 7.78D-05.
     69 vectors produced by pass  5 Test12= 2.52D-14 1.33D-09 XBig12= 4.73D-09 5.60D-06.
     69 vectors produced by pass  6 Test12= 2.52D-14 1.33D-09 XBig12= 3.31D-11 4.28D-07.
     36 vectors produced by pass  7 Test12= 2.52D-14 1.33D-09 XBig12= 2.26D-13 2.99D-08.
      1 vectors produced by pass  8 Test12= 2.52D-14 1.33D-09 XBig12= 1.20D-15 2.43D-09.
 InvSVY:  IOpt=1 It=  1 EMax= 9.99D-16
 Solved reduced A of dimension   520 with    75 vectors.
 End of Minotr F.D. properties file   721 does not exist.
 End of Minotr F.D. properties file   722 does not exist.
 End of Minotr F.D. properties file   788 does not exist.

 **********************************************************************

            Population analysis using the SCF density.

 **********************************************************************

 Orbital symmetries:
 Alpha Orbitals:
       Occupied  (A) (A) (A) (A) (A) (A) (A) (A) (A) (A) (A) (A)
                 (A) (A) (A) (A) (A) (A) (A) (A) (A) (A) (A) (A)
                 (A) (A) (A) (A) (A) (A) (A) (A) (A) (A) (A) (A)
                 (A) (A) (A) (A) (A) (A) (A) (A) (A) (A) (A)
       Virtual   (A) (A) (A) (A) (A) (A) (A) (A) (A) (A) (A) (A)
                 (A) (A) (A) (A) (A) (A) (A) (A) (A) (A) (A) (A)
                 (A) (A) (A) (A) (A) (A) (A) (A) (A) (A) (A) (A)
                 (A) (A) (A) (A) (A) (A) (A) (A) (A) (A) (A) (A)
                 (A) (A) (A) (A) (A) (A) (A) (A) (A) (A) (A) (A)
                 (A) (A) (A) (A) (A) (A) (A) (A) (A) (A) (A) (A)
                 (A) (A) (A) (A) (A) (A) (A) (A) (A) (A) (A) (A)
                 (A) (A) (A) (A) (A) (A) (A) (A) (A) (A) (A) (A)
                 (A) (A) (A) (A) (A) (A) (A) (A) (A) (A) (A) (A)
                 (A) (A) (A) (A) (A) (A) (A) (A) (A) (A) (A) (A)
                 (A) (A) (A) (A) (A) (A) (A) (A) (A) (A) (A) (A)
                 (A) (A) (A) (A) (A) (A) (A) (A) (A) (A) (A) (A)
                 (A) (A) (A) (A) (A) (A) (A) (A) (A) (A) (A) (A)
                 (A) (A) (A) (A) (A) (A) (A) (A) (A) (A) (A) (A)
                 (A) (A) (A) (A) (A) (A) (A) (A) (A) (A) (A) (A)
                 (A) (A) (A) (A) (A) (A) (A) (A) (A) (A) (A) (A)
                 (A) (A) (A) (A) (A) (A) (A) (A) (A) (A) (A)
 Beta  Orbitals:
       Occupied  (A) (A) (A) (A) (A) (A) (A) (A) (A) (A) (A) (A)
                 (A) (A) (A) (A) (A) (A) (A) (A) (A) (A) (A) (A)
                 (A) (A) (A) (A) (A) (A) (A) (A) (A) (A) (A) (A)
                 (A) (A) (A) (A) (A) (A) (A) (A) (A) (A)
       Virtual   (A) (A) (A) (A) (A) (A) (A) (A) (A) (A) (A) (A)
                 (A) (A) (A) (A) (A) (A) (A) (A) (A) (A) (A) (A)
                 (A) (A) (A) (A) (A) (A) (A) (A) (A) (A) (A) (A)
                 (A) (A) (A) (A) (A) (A) (A) (A) (A) (A) (A) (A)
                 (A) (A) (A) (A) (A) (A) (A) (A) (A) (A) (A) (A)
                 (A) (A) (A) (A) (A) (A) (A) (A) (A) (A) (A) (A)
                 (A) (A) (A) (A) (A) (A) (A) (A) (A) (A) (A) (A)
                 (A) (A) (A) (A) (A) (A) (A) (A) (A) (A) (A) (A)
                 (A) (A) (A) (A) (A) (A) (A) (A) (A) (A) (A) (A)
                 (A) (A) (A) (A) (A) (A) (A) (A) (A) (A) (A) (A)
                 (A) (A) (A) (A) (A) (A) (A) (A) (A) (A) (A) (A)
                 (A) (A) (A) (A) (A) (A) (A) (A) (A) (A) (A) (A)
                 (A) (A) (A) (A) (A) (A) (A) (A) (A) (A) (A) (A)
                 (A) (A) (A) (A) (A) (A) (A) (A) (A) (A) (A) (A)
                 (A) (A) (A) (A) (A) (A) (A) (A) (A) (A) (A) (A)
                 (A) (A) (A) (A) (A) (A) (A) (A) (A) (A) (A) (A)
                 (A) (A) (A) (A) (A) (A) (A) (A) (A) (A) (A) (A)
 The electronic state is 2-A.
 Alpha  occ. eigenvalues --  -19.72049 -19.70698 -10.58850 -10.57585 -10.56046
 Alpha  occ. eigenvalues --  -10.55850 -10.55619 -10.55526 -10.55525 -10.55384
 Alpha  occ. eigenvalues --  -10.55286 -10.55263 -10.55146  -1.23988  -0.98221
 Alpha  occ. eigenvalues --   -0.96844  -0.93594  -0.87980  -0.86067  -0.82149
 Alpha  occ. eigenvalues --   -0.77548  -0.70604  -0.68052  -0.67727  -0.59614
 Alpha  occ. eigenvalues --   -0.58989  -0.58621  -0.56544  -0.53396  -0.52182
 Alpha  occ. eigenvalues --   -0.51947  -0.50834  -0.49525  -0.48162  -0.47239
 Alpha  occ. eigenvalues --   -0.46822  -0.46521  -0.42834  -0.42464  -0.39904
 Alpha  occ. eigenvalues --   -0.38542  -0.37235  -0.36175  -0.35034  -0.32934
 Alpha  occ. eigenvalues --   -0.27951  -0.23690
 Alpha virt. eigenvalues --   -0.00792   0.02558   0.04411   0.07035   0.09746
 Alpha virt. eigenvalues --    0.13803   0.14547   0.14949   0.15239   0.17412
 Alpha virt. eigenvalues --    0.19377   0.19634   0.21814   0.22503   0.23015
 Alpha virt. eigenvalues --    0.24976   0.25613   0.27054   0.31097   0.33995
 Alpha virt. eigenvalues --    0.35039   0.35546   0.38194   0.39098   0.41646
 Alpha virt. eigenvalues --    0.49662   0.53112   0.55202   0.55571   0.56760
 Alpha virt. eigenvalues --    0.57313   0.57780   0.59563   0.60753   0.61029
 Alpha virt. eigenvalues --    0.61935   0.63500   0.64046   0.64952   0.66136
 Alpha virt. eigenvalues --    0.66340   0.66762   0.67452   0.68568   0.68984
 Alpha virt. eigenvalues --    0.71891   0.73050   0.76080   0.77761   0.79823
 Alpha virt. eigenvalues --    0.82619   0.84363   0.85303   0.86573   0.87551
 Alpha virt. eigenvalues --    0.87969   0.88499   0.89188   0.89918   0.90451
 Alpha virt. eigenvalues --    0.91902   0.93967   0.95353   0.96645   0.97970
 Alpha virt. eigenvalues --    0.98736   0.99292   1.02076   1.03098   1.04660
 Alpha virt. eigenvalues --    1.05539   1.06532   1.07420   1.08579   1.11947
 Alpha virt. eigenvalues --    1.12730   1.14394   1.17435   1.19449   1.22546
 Alpha virt. eigenvalues --    1.26234   1.27020   1.29001   1.29537   1.32112
 Alpha virt. eigenvalues --    1.33451   1.34975   1.37594   1.39538   1.41072
 Alpha virt. eigenvalues --    1.42537   1.44202   1.45887   1.47098   1.48180
 Alpha virt. eigenvalues --    1.48497   1.50662   1.52903   1.53422   1.54820
 Alpha virt. eigenvalues --    1.56190   1.57839   1.61434   1.74863   1.78019
 Alpha virt. eigenvalues --    1.79566   1.81341   1.84557   1.86407   1.86667
 Alpha virt. eigenvalues --    1.89937   1.90541   1.91693   1.92294   1.93282
 Alpha virt. eigenvalues --    1.94697   1.95023   1.96271   1.96536   1.98921
 Alpha virt. eigenvalues --    2.01559   2.04515   2.05361   2.06807   2.08666
 Alpha virt. eigenvalues --    2.09622   2.11336   2.13958   2.18806   2.19179
 Alpha virt. eigenvalues --    2.21611   2.23674   2.27133   2.29017   2.30741
 Alpha virt. eigenvalues --    2.30838   2.32703   2.34056   2.34528   2.36396
 Alpha virt. eigenvalues --    2.39060   2.40884   2.41885   2.43217   2.43626
 Alpha virt. eigenvalues --    2.43933   2.45903   2.47072   2.48261   2.48742
 Alpha virt. eigenvalues --    2.52423   2.53881   2.56858   2.57904   2.58824
 Alpha virt. eigenvalues --    2.60248   2.61629   2.62800   2.63202   2.64868
 Alpha virt. eigenvalues --    2.67314   2.69143   2.70353   2.72821   2.74567
 Alpha virt. eigenvalues --    2.77008   2.77889   2.79693   2.84879   2.85464
 Alpha virt. eigenvalues --    2.87657   2.91278   2.95994   3.01990   3.02741
 Alpha virt. eigenvalues --    3.08429   3.14422   3.16759   3.21884   3.23154
 Alpha virt. eigenvalues --    3.25528   3.31412   3.33620   3.37158   3.42353
 Alpha virt. eigenvalues --    3.46450   3.47522   3.47910   3.57259   3.73994
 Alpha virt. eigenvalues --    3.78352   3.87469   4.13171   4.16512   4.17816
 Alpha virt. eigenvalues --    4.19209   4.23451   4.34351   4.38789   4.46103
 Alpha virt. eigenvalues --    4.52679   4.68544   4.94483
  Beta  occ. eigenvalues --  -19.71593 -19.69547 -10.58608 -10.57675 -10.56080
  Beta  occ. eigenvalues --  -10.55804 -10.55633 -10.55504 -10.55395 -10.55367
  Beta  occ. eigenvalues --  -10.55293 -10.55277 -10.55112  -1.21704  -0.98108
  Beta  occ. eigenvalues --   -0.93587  -0.92969  -0.87820  -0.85840  -0.82059
  Beta  occ. eigenvalues --   -0.76957  -0.70534  -0.67964  -0.67506  -0.59045
  Beta  occ. eigenvalues --   -0.58503  -0.58353  -0.56341  -0.52526  -0.51842
  Beta  occ. eigenvalues --   -0.50491  -0.49333  -0.48190  -0.47222  -0.46933
  Beta  occ. eigenvalues --   -0.46296  -0.44505  -0.42737  -0.41467  -0.39773
  Beta  occ. eigenvalues --   -0.38489  -0.35597  -0.34289  -0.32814  -0.27994
  Beta  occ. eigenvalues --   -0.24181
  Beta virt. eigenvalues --   -0.09928  -0.00341   0.02600   0.05889   0.07637
  Beta virt. eigenvalues --    0.10103   0.14305   0.14743   0.15449   0.15608
  Beta virt. eigenvalues --    0.17831   0.19522   0.20065   0.21857   0.22587
  Beta virt. eigenvalues --    0.23169   0.25040   0.25852   0.27149   0.31221
  Beta virt. eigenvalues --    0.34092   0.35082   0.35571   0.38285   0.39407
  Beta virt. eigenvalues --    0.41778   0.49774   0.53266   0.55343   0.55979
  Beta virt. eigenvalues --    0.56880   0.57907   0.58264   0.59798   0.61107
  Beta virt. eigenvalues --    0.61549   0.62251   0.63773   0.64277   0.65276
  Beta virt. eigenvalues --    0.66227   0.66457   0.66973   0.67604   0.68936
  Beta virt. eigenvalues --    0.69052   0.71950   0.73163   0.76126   0.77596
  Beta virt. eigenvalues --    0.80028   0.83101   0.84763   0.85561   0.86926
  Beta virt. eigenvalues --    0.87755   0.88261   0.88607   0.89440   0.90148
  Beta virt. eigenvalues --    0.90591   0.92552   0.93984   0.95405   0.97156
  Beta virt. eigenvalues --    0.98122   0.98858   0.99720   1.02757   1.03489
  Beta virt. eigenvalues --    1.05110   1.06596   1.07500   1.08327   1.09054
  Beta virt. eigenvalues --    1.12077   1.12996   1.14545   1.18052   1.19859
  Beta virt. eigenvalues --    1.22924   1.26411   1.27600   1.29304   1.29778
  Beta virt. eigenvalues --    1.32495   1.33915   1.35923   1.37946   1.39833
  Beta virt. eigenvalues --    1.41367   1.43354   1.44447   1.46243   1.47282
  Beta virt. eigenvalues --    1.48340   1.49060   1.51286   1.53117   1.53815
  Beta virt. eigenvalues --    1.55531   1.56462   1.58068   1.62134   1.75152
  Beta virt. eigenvalues --    1.78356   1.79754   1.82903   1.85113   1.86804
  Beta virt. eigenvalues --    1.88389   1.90238   1.91224   1.92332   1.93169
  Beta virt. eigenvalues --    1.93686   1.95116   1.95460   1.96489   1.96828
  Beta virt. eigenvalues --    1.99348   2.01859   2.04601   2.05638   2.06915
  Beta virt. eigenvalues --    2.08988   2.10499   2.11566   2.14070   2.19175
  Beta virt. eigenvalues --    2.19574   2.21813   2.23947   2.27411   2.29437
  Beta virt. eigenvalues --    2.31190   2.31404   2.32949   2.34604   2.34866
  Beta virt. eigenvalues --    2.36755   2.39485   2.41047   2.42555   2.43718
  Beta virt. eigenvalues --    2.43886   2.44518   2.46257   2.47350   2.48895
  Beta virt. eigenvalues --    2.49109   2.52660   2.54416   2.57103   2.58307
  Beta virt. eigenvalues --    2.59177   2.60399   2.62085   2.63023   2.63335
  Beta virt. eigenvalues --    2.64957   2.67515   2.69448   2.70662   2.73192
  Beta virt. eigenvalues --    2.74908   2.77204   2.78094   2.80051   2.85075
  Beta virt. eigenvalues --    2.85695   2.87995   2.92145   2.96656   3.02436
  Beta virt. eigenvalues --    3.03278   3.08759   3.14617   3.17044   3.22053
  Beta virt. eigenvalues --    3.23212   3.25684   3.31935   3.34398   3.37653
  Beta virt. eigenvalues --    3.42456   3.46845   3.47741   3.48969   3.58849
  Beta virt. eigenvalues --    3.74340   3.78860   3.87673   4.13340   4.16614
  Beta virt. eigenvalues --    4.17974   4.19307   4.23807   4.35765   4.39886
  Beta virt. eigenvalues --    4.46723   4.53052   4.68907   4.94771
          Condensed to atoms (all electrons):
               1          2          3          4          5          6
     1  C    4.766086   0.520773   0.499224  -0.024305  -0.042038  -0.013749
     2  C    0.520773   5.124855  -0.027061  -0.069134   0.004547   0.448564
     3  C    0.499224  -0.027061   4.922768   0.538404   0.370305  -0.039184
     4  C   -0.024305  -0.069134   0.538404   4.962848  -0.027644  -0.028870
     5  H   -0.042038   0.004547   0.370305  -0.027644   0.581433   0.000805
     6  C   -0.013749   0.448564  -0.039184  -0.028870   0.000805   4.690929
     7  H   -0.043126   0.362209   0.004636   0.000378  -0.000167  -0.034391
     8  C   -0.027354  -0.045759  -0.027024   0.466882   0.002603   0.537163
     9  H    0.003028   0.000833  -0.033385   0.369874  -0.004749   0.003761
    10  C    0.006743  -0.076377  -0.000159   0.011967   0.000011   0.469383
    11  C   -0.000306   0.007479   0.000049  -0.000472  -0.000000  -0.018300
    12  H    0.000254  -0.006612   0.000013  -0.000176  -0.000000  -0.043602
    13  C    0.000044  -0.000487  -0.000384   0.007248   0.000003  -0.036733
    14  H    0.000003  -0.000190  -0.000000   0.000010   0.000000   0.002573
    15  C   -0.000280   0.013576   0.008086  -0.080690  -0.000178  -0.035399
    16  H    0.000015  -0.000188   0.000225  -0.006372  -0.000010   0.003912
    17  H   -0.000000   0.000011   0.000003  -0.000178  -0.000000   0.001047
    18  C    0.384558  -0.068695  -0.062448   0.006333  -0.006612   0.005233
    19  H   -0.047314  -0.029228  -0.006301  -0.000207   0.000177  -0.000756
    20  H   -0.031615  -0.002632   0.003559  -0.000168   0.000002   0.000136
    21  H   -0.029811   0.003873  -0.004500   0.000123   0.004732  -0.000133
    22  O   -0.006687  -0.000340   0.000015   0.000007   0.000000   0.000107
    23  O    0.000361   0.003501   0.000022  -0.000005   0.000000  -0.001837
    24  H    0.000206   0.001280   0.000002  -0.000001  -0.000000  -0.000134
               7          8          9         10         11         12
     1  C   -0.043126  -0.027354   0.003028   0.006743  -0.000306   0.000254
     2  C    0.362209  -0.045759   0.000833  -0.076377   0.007479  -0.006612
     3  C    0.004636  -0.027024  -0.033385  -0.000159   0.000049   0.000013
     4  C    0.000378   0.466882   0.369874   0.011967  -0.000472  -0.000176
     5  H   -0.000167   0.002603  -0.004749   0.000011  -0.000000  -0.000000
     6  C   -0.034391   0.537163   0.003761   0.469383  -0.018300  -0.043602
     7  H    0.607085   0.004217   0.000019  -0.007117   0.000170   0.005435
     8  C    0.004217   4.726738  -0.037810  -0.035241  -0.037108   0.004167
     9  H    0.000019  -0.037810   0.575897  -0.000175   0.000012   0.000002
    10  C   -0.007117  -0.035241  -0.000175   4.966602   0.550660   0.370786
    11  C    0.000170  -0.037108   0.000012   0.550660   4.847381  -0.037629
    12  H    0.005435   0.004167   0.000002   0.370786  -0.037629   0.603930
    13  C    0.000017  -0.020988   0.000196  -0.033975   0.506894   0.004127
    14  H   -0.000010   0.001034  -0.000000  -0.031216   0.374097  -0.005090
    15  C   -0.000192   0.478452  -0.006284  -0.062851  -0.031391   0.000553
    16  H    0.000002  -0.039090   0.005099   0.000624   0.003880   0.000019
    17  H    0.000000   0.002542  -0.000009   0.003674  -0.036454  -0.000172
    18  C   -0.006442   0.000995  -0.000189  -0.000233   0.000002  -0.000007
    19  H   -0.000611   0.000325   0.000001   0.000036  -0.000000  -0.000009
    20  H    0.004903   0.000006   0.000002   0.000003  -0.000000   0.000001
    21  H    0.000024  -0.000002  -0.000006   0.000002  -0.000000   0.000000
    22  O    0.003828   0.000013   0.000000  -0.000044  -0.000000  -0.000031
    23  O    0.000891  -0.000088  -0.000000   0.000259   0.000009   0.000142
    24  H    0.000742  -0.000003   0.000000   0.000270   0.000003   0.000688
              13         14         15         16         17         18
     1  C    0.000044   0.000003  -0.000280   0.000015  -0.000000   0.384558
     2  C   -0.000487  -0.000190   0.013576  -0.000188   0.000011  -0.068695
     3  C   -0.000384  -0.000000   0.008086   0.000225   0.000003  -0.062448
     4  C    0.007248   0.000010  -0.080690  -0.006372  -0.000178   0.006333
     5  H    0.000003   0.000000  -0.000178  -0.000010  -0.000000  -0.006612
     6  C   -0.036733   0.002573  -0.035399   0.003912   0.001047   0.005233
     7  H    0.000017  -0.000010  -0.000192   0.000002   0.000000  -0.006442
     8  C   -0.020988   0.001034   0.478452  -0.039090   0.002542   0.000995
     9  H    0.000196  -0.000000  -0.006284   0.005099  -0.000009  -0.000189
    10  C   -0.033975  -0.031216  -0.062851   0.000624   0.003674  -0.000233
    11  C    0.506894   0.374097  -0.031391   0.003880  -0.036454   0.000002
    12  H    0.004127  -0.005090   0.000553   0.000019  -0.000172  -0.000007
    13  C    4.862148  -0.036505   0.541778  -0.037184   0.374651  -0.000000
    14  H   -0.036505   0.574454   0.003688  -0.000167  -0.004409  -0.000000
    15  C    0.541778   0.003688   4.971025   0.372589  -0.031280   0.000001
    16  H   -0.037184  -0.000167   0.372589   0.580755  -0.004766   0.000000
    17  H    0.374651  -0.004409  -0.031280  -0.004766   0.573754  -0.000000
    18  C   -0.000000  -0.000000   0.000001   0.000000  -0.000000   5.177367
    19  H   -0.000001   0.000000   0.000001   0.000000  -0.000000   0.189297
    20  H    0.000000  -0.000000  -0.000000   0.000000  -0.000000   0.383083
    21  H    0.000000   0.000000  -0.000000   0.000000  -0.000000   0.379782
    22  O   -0.000000   0.000000  -0.000000  -0.000000  -0.000000  -0.008936
    23  O    0.000001  -0.000000   0.000001   0.000000   0.000000   0.000179
    24  H    0.000001  -0.000001  -0.000001   0.000000  -0.000000  -0.000107
              19         20         21         22         23         24
     1  C   -0.047314  -0.031615  -0.029811  -0.006687   0.000361   0.000206
     2  C   -0.029228  -0.002632   0.003873  -0.000340   0.003501   0.001280
     3  C   -0.006301   0.003559  -0.004500   0.000015   0.000022   0.000002
     4  C   -0.000207  -0.000168   0.000123   0.000007  -0.000005  -0.000001
     5  H    0.000177   0.000002   0.004732   0.000000   0.000000  -0.000000
     6  C   -0.000756   0.000136  -0.000133   0.000107  -0.001837  -0.000134
     7  H   -0.000611   0.004903   0.000024   0.003828   0.000891   0.000742
     8  C    0.000325   0.000006  -0.000002   0.000013  -0.000088  -0.000003
     9  H    0.000001   0.000002  -0.000006   0.000000  -0.000000   0.000000
    10  C    0.000036   0.000003   0.000002  -0.000044   0.000259   0.000270
    11  C   -0.000000  -0.000000  -0.000000  -0.000000   0.000009   0.000003
    12  H   -0.000009   0.000001   0.000000  -0.000031   0.000142   0.000688
    13  C   -0.000001   0.000000   0.000000  -0.000000   0.000001   0.000001
    14  H    0.000000  -0.000000   0.000000   0.000000  -0.000000  -0.000001
    15  C    0.000001  -0.000000  -0.000000  -0.000000   0.000001  -0.000001
    16  H    0.000000   0.000000   0.000000  -0.000000   0.000000   0.000000
    17  H   -0.000000  -0.000000  -0.000000  -0.000000   0.000000  -0.000000
    18  C    0.189297   0.383083   0.379782  -0.008936   0.000179  -0.000107
    19  H    0.727117  -0.023346  -0.000732   0.045366  -0.002422  -0.000118
    20  H   -0.023346   0.511293  -0.027247   0.002329  -0.000084  -0.000020
    21  H   -0.000732  -0.027247   0.517451   0.000105  -0.000002  -0.000000
    22  O    0.045366   0.002329   0.000105   8.162606   0.074176  -0.027129
    23  O   -0.002422  -0.000084  -0.000002   0.074176   7.930107   0.272528
    24  H   -0.000118  -0.000020  -0.000000  -0.027129   0.272528   0.393638
          Atomic-Atomic Spin Densities.
               1          2          3          4          5          6
     1  C   -0.113771   0.012536   0.004969   0.002370   0.000420  -0.000776
     2  C    0.012536   0.202423   0.001272   0.000163  -0.000010  -0.007639
     3  C    0.004969   0.001272   0.056184  -0.000258  -0.000053  -0.000019
     4  C    0.002370   0.000163  -0.000258  -0.055038   0.000233   0.000645
     5  H    0.000420  -0.000010  -0.000053   0.000233  -0.002824   0.000002
     6  C   -0.000776  -0.007639  -0.000019   0.000645   0.000002  -0.046780
     7  H    0.000993   0.001643   0.000020  -0.000024   0.000002  -0.000690
     8  C   -0.000248  -0.005361  -0.002354   0.001416   0.000020   0.002840
     9  H   -0.000032   0.000008  -0.000081   0.000044  -0.000016  -0.000029
    10  C   -0.000095  -0.004871  -0.000007  -0.000063   0.000000   0.003103
    11  C    0.000007   0.000062   0.000000  -0.000003   0.000000   0.000892
    12  H   -0.000009  -0.000143   0.000000  -0.000000   0.000000   0.000357
    13  C   -0.000000   0.000087   0.000004  -0.000031  -0.000000  -0.000170
    14  H    0.000000  -0.000001  -0.000000   0.000000  -0.000000  -0.000021
    15  C    0.000001  -0.000031  -0.000059   0.001699   0.000000   0.000437
    16  H   -0.000000  -0.000000   0.000002   0.000051   0.000000  -0.000026
    17  H    0.000000  -0.000000  -0.000000   0.000001   0.000000  -0.000005
    18  C   -0.032293  -0.015354  -0.006504   0.000070   0.000011  -0.000050
    19  H    0.028978   0.001071   0.000520  -0.000048  -0.000052  -0.000074
    20  H   -0.000182   0.000093   0.000018   0.000002  -0.000001   0.000011
    21  H    0.000885   0.000050  -0.000119   0.000002  -0.000112   0.000010
    22  O    0.002562   0.006993   0.000058  -0.000002  -0.000001   0.000174
    23  O   -0.000191  -0.005404  -0.000016   0.000002   0.000000  -0.000018
    24  H   -0.000032   0.000112   0.000000  -0.000000   0.000000   0.000025
               7          8          9         10         11         12
     1  C    0.000993  -0.000248  -0.000032  -0.000095   0.000007  -0.000009
     2  C    0.001643  -0.005361   0.000008  -0.004871   0.000062  -0.000143
     3  C    0.000020  -0.002354  -0.000081  -0.000007   0.000000   0.000000
     4  C   -0.000024   0.001416   0.000044  -0.000063  -0.000003  -0.000000
     5  H    0.000002   0.000020  -0.000016   0.000000   0.000000   0.000000
     6  C   -0.000690   0.002840  -0.000029   0.003103   0.000892   0.000357
     7  H   -0.010712  -0.000015  -0.000000  -0.000019   0.000004  -0.000037
     8  C   -0.000015   0.072237  -0.000133   0.001526  -0.000073   0.000021
     9  H   -0.000000  -0.000133   0.002067  -0.000001   0.000000  -0.000000
    10  C   -0.000019   0.001526  -0.000001   0.052774  -0.000826   0.000115
    11  C    0.000004  -0.000073   0.000000  -0.000826  -0.031768   0.000081
    12  H   -0.000037   0.000021  -0.000000   0.000115   0.000081  -0.002603
    13  C   -0.000001  -0.003184   0.000001  -0.002811   0.001056   0.000007
    14  H   -0.000000   0.000001  -0.000000  -0.000116   0.000155  -0.000005
    15  C    0.000005   0.000287   0.000071   0.000138   0.000574   0.000000
    16  H    0.000000  -0.000202   0.000018   0.000002  -0.000015  -0.000000
    17  H   -0.000000   0.000020   0.000000   0.000005   0.000137   0.000001
    18  C   -0.000045   0.000139  -0.000002   0.000016   0.000000  -0.000000
    19  H   -0.000131  -0.000071  -0.000000   0.000021   0.000000   0.000005
    20  H   -0.000115   0.000000  -0.000000  -0.000001  -0.000000  -0.000000
    21  H   -0.000013  -0.000001  -0.000000  -0.000000   0.000000   0.000000
    22  O   -0.000954  -0.000012  -0.000000  -0.000053  -0.000000  -0.000000
    23  O    0.000112   0.000036   0.000000   0.000452   0.000001  -0.000001
    24  H    0.000075   0.000001  -0.000000  -0.000033  -0.000001  -0.000023
              13         14         15         16         17         18
     1  C   -0.000000   0.000000   0.000001  -0.000000   0.000000  -0.032293
     2  C    0.000087  -0.000001  -0.000031  -0.000000  -0.000000  -0.015354
     3  C    0.000004  -0.000000  -0.000059   0.000002  -0.000000  -0.006504
     4  C   -0.000031   0.000000   0.001699   0.000051   0.000001   0.000070
     5  H   -0.000000  -0.000000   0.000000   0.000000   0.000000   0.000011
     6  C   -0.000170  -0.000021   0.000437  -0.000026  -0.000005  -0.000050
     7  H   -0.000001  -0.000000   0.000005   0.000000  -0.000000  -0.000045
     8  C   -0.003184   0.000001   0.000287  -0.000202   0.000020   0.000139
     9  H    0.000001  -0.000000   0.000071   0.000018   0.000000  -0.000002
    10  C   -0.002811  -0.000116   0.000138   0.000002   0.000005   0.000016
    11  C    0.001056   0.000155   0.000574  -0.000015   0.000137   0.000000
    12  H    0.000007  -0.000005   0.000000  -0.000000   0.000001  -0.000000
    13  C    0.065520  -0.000136   0.000257  -0.000093   0.000115  -0.000000
    14  H   -0.000136   0.001170  -0.000010  -0.000001  -0.000002  -0.000000
    15  C    0.000257  -0.000010  -0.038735   0.000166   0.000104   0.000000
    16  H   -0.000093  -0.000001   0.000166   0.001331   0.000002   0.000000
    17  H    0.000115  -0.000002   0.000104   0.000002  -0.003262   0.000000
    18  C   -0.000000  -0.000000   0.000000   0.000000   0.000000   0.424221
    19  H    0.000000  -0.000000   0.000000   0.000000   0.000000   0.037418
    20  H    0.000000   0.000000   0.000000   0.000000   0.000000  -0.007239
    21  H    0.000000  -0.000000  -0.000000  -0.000000   0.000000  -0.000724
    22  O    0.000000   0.000000   0.000000  -0.000000   0.000000  -0.006879
    23  O   -0.000001   0.000000  -0.000000   0.000000  -0.000000   0.000406
    24  H    0.000000   0.000000   0.000000  -0.000000  -0.000000  -0.000023
              19         20         21         22         23         24
     1  C    0.028978  -0.000182   0.000885   0.002562  -0.000191  -0.000032
     2  C    0.001071   0.000093   0.000050   0.006993  -0.005404   0.000112
     3  C    0.000520   0.000018  -0.000119   0.000058  -0.000016   0.000000
     4  C   -0.000048   0.000002   0.000002  -0.000002   0.000002  -0.000000
     5  H   -0.000052  -0.000001  -0.000112  -0.000001   0.000000   0.000000
     6  C   -0.000074   0.000011   0.000010   0.000174  -0.000018   0.000025
     7  H   -0.000131  -0.000115  -0.000013  -0.000954   0.000112   0.000075
     8  C   -0.000071   0.000000  -0.000001  -0.000012   0.000036   0.000001
     9  H   -0.000000  -0.000000  -0.000000  -0.000000   0.000000  -0.000000
    10  C    0.000021  -0.000001  -0.000000  -0.000053   0.000452  -0.000033
    11  C    0.000000  -0.000000   0.000000  -0.000000   0.000001  -0.000001
    12  H    0.000005  -0.000000   0.000000  -0.000000  -0.000001  -0.000023
    13  C    0.000000   0.000000   0.000000   0.000000  -0.000001   0.000000
    14  H   -0.000000   0.000000  -0.000000   0.000000   0.000000   0.000000
    15  C    0.000000   0.000000  -0.000000   0.000000  -0.000000   0.000000
    16  H    0.000000   0.000000  -0.000000  -0.000000   0.000000  -0.000000
    17  H    0.000000   0.000000   0.000000   0.000000  -0.000000  -0.000000
    18  C    0.037418  -0.007239  -0.000724  -0.006879   0.000406  -0.000023
    19  H   -0.287127   0.008593  -0.001300  -0.017132   0.001116   0.000195
    20  H    0.008593  -0.020996   0.001124   0.000494  -0.000024  -0.000001
    21  H   -0.001300   0.001124  -0.018686   0.000028  -0.000001   0.000000
    22  O   -0.017132   0.000494   0.000028   0.665844  -0.061035  -0.000286
    23  O    0.001116  -0.000024  -0.000001  -0.061035   0.202628   0.000050
    24  H    0.000195  -0.000001   0.000000  -0.000286   0.000050  -0.005570
 Mulliken charges and spin densities:
               1          2
     1  C    0.085289  -0.093913
     2  C   -0.164798   0.187701
     3  C   -0.146865   0.053578
     4  C   -0.125853  -0.048770
     5  H    0.116782  -0.002381
     6  C    0.089475  -0.047800
     7  H    0.097501  -0.009902
     8  C    0.045332   0.066889
     9  H    0.123883   0.001914
    10  C   -0.133631   0.049254
    11  C   -0.128975  -0.029714
    12  H    0.103208  -0.002235
    13  C   -0.130850   0.060619
    14  H    0.121729   0.001035
    15  C   -0.141204  -0.035098
    16  H    0.120659   0.001235
    17  H    0.121587  -0.002884
    18  C   -0.373161   0.393169
    19  H    0.148726  -0.228018
    20  H    0.179796  -0.018225
    21  H    0.156343  -0.018856
    22  O   -0.245387   0.589799
    23  O   -0.277739   0.138112
    24  H    0.358154  -0.005509
 Sum of Mulliken charges =  -0.00000   1.00000
 Mulliken charges and spin densities with hydrogens summed into heavy atoms:
               1          2
     1  C    0.085289  -0.093913
     2  C   -0.067298   0.177799
     3  C   -0.030083   0.051197
     4  C   -0.001970  -0.046856
     6  C    0.089475  -0.047800
     8  C    0.045332   0.066889
    10  C   -0.030422   0.047020
    11  C   -0.007247  -0.028679
    13  C   -0.009263   0.057736
    15  C   -0.020545  -0.033862
    18  C    0.111704   0.128069
    22  O   -0.245387   0.589799
    23  O    0.080415   0.132602
 APT charges:
               1
     1  C   -0.083651
     2  C   -0.420548
     3  C   -0.514317
     4  C   -0.485610
     5  H    0.641484
     6  C   -0.415340
     7  H    0.366730
     8  C   -0.409553
     9  H    0.617850
    10  C   -0.553587
    11  C   -0.419426
    12  H    0.396878
    13  C   -0.497615
    14  H    0.719213
    15  C   -0.498425
    16  H    0.621000
    17  H    0.822859
    18  C   -0.911839
    19  H    0.073940
    20  H    0.450151
    21  H    0.708621
    22  O   -0.346026
    23  O   -0.395451
    24  H    0.532660
 Sum of APT charges =  -0.00000
 APT charges with hydrogens summed into heavy atoms:
               1
     1  C   -0.083651
     2  C   -0.053818
     3  C    0.127168
     4  C    0.132240
     6  C   -0.415340
     8  C   -0.409553
    10  C   -0.156709
    11  C    0.299786
    13  C    0.325244
    15  C    0.122576
    18  C    0.320874
    22  O   -0.346026
    23  O    0.137209
 Electronic spatial extent (au):  <R**2>=           2591.7548
 Charge=             -0.0000 electrons
 Dipole moment (field-independent basis, Debye):
    X=              0.6581    Y=             -0.6863    Z=              1.8121  Tot=              2.0464
 Quadrupole moment (field-independent basis, Debye-Ang):
   XX=            -72.1880   YY=            -65.8296   ZZ=            -80.0918
   XY=              5.4694   XZ=             -7.8895   YZ=              8.3612
 Traceless Quadrupole moment (field-independent basis, Debye-Ang):
   XX=              0.5151   YY=              6.8736   ZZ=             -7.3887
   XY=              5.4694   XZ=             -7.8895   YZ=              8.3612
 Octapole moment (field-independent basis, Debye-Ang**2):
  XXX=              7.2746  YYY=             26.6897  ZZZ=             -5.8020  XYY=            -10.7946
  XXY=            -10.1962  XXZ=              6.6363  XZZ=             -6.3236  YZZ=              4.4772
  YYZ=              4.6598  XYZ=             -3.2279
 Hexadecapole moment (field-independent basis, Debye-Ang**3):
 XXXX=          -2000.7621 YYYY=           -957.3402 ZZZZ=           -266.1295 XXXY=             50.6717
 XXXZ=            -64.5197 YYYX=            -35.0869 YYYZ=             43.4146 ZZZX=              5.9205
 ZZZY=             -3.7779 XXYY=           -482.6184 XXZZ=           -407.0175 YYZZ=           -229.9139
 XXYZ=             29.4531 YYXZ=            -17.1772 ZZXY=            -14.4941
 N-N= 7.304047142115D+02 E-N=-2.800491327916D+03  KE= 5.705979225587D+02
  Exact polarizability:   0.000   0.000   0.000   0.000   0.000   0.000
 Approx polarizability: 259.010  18.933 225.542 -15.160  12.433 103.149
                          Isotropic Fermi Contact Couplings
        Atom                 a.u.       MegaHertz       Gauss      10(-4) cm-1
     1  C(13)             -0.03476     -39.07312     -13.94226     -13.03339
     2  C(13)              0.03052      34.30909      12.24234      11.44428
     3  C(13)              0.01057      11.87869       4.23861       3.96231
     4  C(13)             -0.01016     -11.41729      -4.07397      -3.80840
     5  H(1)              -0.00081      -3.63209      -1.29602      -1.21154
     6  C(13)             -0.01285     -14.44989      -5.15608      -4.81997
     7  H(1)              -0.00293     -13.11726      -4.68057      -4.37545
     8  C(13)              0.01246      14.00764       4.99827       4.67245
     9  H(1)               0.00062       2.75319       0.98241       0.91837
    10  C(13)              0.00851       9.56367       3.41256       3.19010
    11  C(13)             -0.00673      -7.56536      -2.69951      -2.52353
    12  H(1)              -0.00074      -3.31257      -1.18201      -1.10496
    13  C(13)              0.01035      11.63810       4.15276       3.88205
    14  H(1)               0.00034       1.52224       0.54317       0.50777
    15  C(13)             -0.00796      -8.94901      -3.19323      -2.98507
    16  H(1)               0.00039       1.76407       0.62946       0.58843
    17  H(1)              -0.00092      -4.09597      -1.46155      -1.36627
    18  C(13)              0.04860      54.64056      19.49711      18.22613
    19  H(1)              -0.07468    -333.81569    -119.11374    -111.34893
    20  H(1)              -0.00846     -37.82876     -13.49824     -12.61831
    21  H(1)              -0.00583     -26.05323      -9.29644      -8.69042
    22  O(17)              0.04250     -25.76539      -9.19373      -8.59441
    23  O(17)              0.03812     -23.11096      -8.24656      -7.70898
    24  H(1)              -0.00295     -13.17084      -4.69968      -4.39332
 --------------------------------------------------------
       Center         ----  Spin Dipole Couplings  ----
                      3XX-RR        3YY-RR        3ZZ-RR
 --------------------------------------------------------
     1   Atom        0.026133      0.017135     -0.043268
     2   Atom       -0.071162     -0.040498      0.111660
     3   Atom       -0.019320     -0.009153      0.028473
     4   Atom        0.017076      0.010510     -0.027586
     5   Atom       -0.001929      0.003229     -0.001300
     6   Atom        0.015898      0.004964     -0.020862
     7   Atom       -0.004901      0.002112      0.002789
     8   Atom       -0.021586     -0.015861      0.037447
     9   Atom        0.001361      0.000006     -0.001367
    10   Atom       -0.015037     -0.012957      0.027994
    11   Atom        0.010983      0.004526     -0.015508
    12   Atom        0.000306      0.000368     -0.000675
    13   Atom       -0.018735     -0.015611      0.034347
    14   Atom        0.001692     -0.000930     -0.000762
    15   Atom        0.012238      0.006251     -0.018490
    16   Atom        0.001451     -0.000389     -0.001062
    17   Atom        0.004855     -0.003781     -0.001074
    18   Atom       -0.149370     -0.080135      0.229505
    19   Atom       -0.033840      0.050264     -0.016424
    20   Atom       -0.010910      0.009629      0.001281
    21   Atom       -0.012298      0.017140     -0.004842
    22   Atom        0.231695      0.822276     -1.053971
    23   Atom       -0.094217      0.393951     -0.299735
    24   Atom       -0.018379      0.000807      0.017572
 --------------------------------------------------------
                        XY            XZ            YZ
 --------------------------------------------------------
     1   Atom        0.018321     -0.028362      0.037635
     2   Atom       -0.026936      0.051535     -0.096198
     3   Atom       -0.007738      0.014245     -0.024013
     4   Atom        0.005595     -0.014190      0.021508
     5   Atom        0.000438      0.000104      0.002124
     6   Atom        0.003983     -0.010361      0.013818
     7   Atom       -0.011101      0.002117      0.000957
     8   Atom       -0.011683      0.020947     -0.032393
     9   Atom        0.001360      0.000085     -0.000177
    10   Atom       -0.006106      0.015260     -0.021778
    11   Atom        0.003096     -0.007994      0.011614
    12   Atom       -0.001122      0.001344      0.001646
    13   Atom       -0.008806      0.018583     -0.029231
    14   Atom       -0.000510     -0.000526      0.000321
    15   Atom        0.004538     -0.009333      0.013823
    16   Atom        0.000767     -0.000119     -0.000105
    17   Atom        0.000456     -0.001178     -0.001623
    18   Atom       -0.059344      0.126136     -0.198895
    19   Atom        0.004258      0.000092     -0.031252
    20   Atom       -0.019797     -0.007202      0.007620
    21   Atom        0.019341      0.012544      0.004471
    22   Atom       -1.585956      0.347421     -0.442893
    23   Atom       -0.649080      0.233366     -0.251113
    24   Atom        0.006218      0.014743      0.023361
 --------------------------------------------------------


 ---------------------------------------------------------------------------------
              Anisotropic Spin Dipole Couplings in Principal Axis System
 ---------------------------------------------------------------------------------

       Atom             a.u.   MegaHertz   Gauss  10(-4) cm-1        Axes

              Baa    -0.0727    -9.755    -3.481    -3.254  0.3215 -0.4209  0.8482
     1 C(13)  Bbb     0.0322     4.316     1.540     1.440 -0.5678  0.6312  0.5284
              Bcc     0.0405     5.439     1.941     1.814  0.7578  0.6515  0.0361
 
              Baa    -0.0881   -11.818    -4.217    -3.942  0.4860  0.8298  0.2743
     2 C(13)  Bbb    -0.0840   -11.278    -4.024    -3.762  0.8425 -0.3614 -0.3995
              Bcc     0.1721    23.096     8.241     7.704  0.2324 -0.4252  0.8747
 
              Baa    -0.0236    -3.170    -1.131    -1.057  0.9399  0.3241 -0.1076
     3 C(13)  Bbb    -0.0207    -2.774    -0.990    -0.925 -0.2361  0.8443  0.4810
              Bcc     0.0443     5.943     2.121     1.982  0.2468 -0.4267  0.8701
 
              Baa    -0.0412    -5.535    -1.975    -1.846  0.2528 -0.3944  0.8835
     4 C(13)  Bbb     0.0198     2.657     0.948     0.886  0.4705  0.8480  0.2440
              Bcc     0.0214     2.878     1.027     0.960  0.8454 -0.3540 -0.3999
 
              Baa    -0.0022    -1.153    -0.411    -0.385  0.3069 -0.3704  0.8767
     5 H(1)   Bbb    -0.0019    -1.036    -0.370    -0.345  0.9489  0.0477 -0.3120
              Bcc     0.0041     2.189     0.781     0.730  0.0737  0.9276  0.3661
 
              Baa    -0.0296    -3.968    -1.416    -1.323  0.2370 -0.3844  0.8922
     6 C(13)  Bbb     0.0109     1.468     0.524     0.490  0.0575  0.9223  0.3821
              Bcc     0.0186     2.500     0.892     0.834  0.9698  0.0393 -0.2407
 
              Baa    -0.0134    -7.126    -2.543    -2.377  0.8004  0.5830 -0.1395
     7 H(1)   Bbb     0.0031     1.642     0.586     0.548  0.0734  0.1357  0.9880
              Bcc     0.0103     5.484     1.957     1.829 -0.5950  0.8010 -0.0658
 
              Baa    -0.0319    -4.280    -1.527    -1.428  0.4128  0.8666  0.2801
     8 C(13)  Bbb    -0.0279    -3.742    -1.335    -1.248  0.8660 -0.2782 -0.4156
              Bcc     0.0598     8.022     2.863     2.676  0.2822 -0.4142  0.8653
 
              Baa    -0.0014    -0.764    -0.272    -0.255 -0.1598  0.2685  0.9499
     9 H(1)   Bbb    -0.0008    -0.412    -0.147    -0.137 -0.5019  0.8066 -0.3124
              Bcc     0.0022     1.175     0.419     0.392  0.8501  0.5267 -0.0059
 
              Baa    -0.0224    -3.012    -1.075    -1.005 -0.1541  0.8893  0.4306
    10 C(13)  Bbb    -0.0197    -2.642    -0.943    -0.881  0.9487  0.2550 -0.1871
              Bcc     0.0421     5.654     2.017     1.886  0.2762 -0.3797  0.8829
 
              Baa    -0.0230    -3.084    -1.101    -1.029  0.2443 -0.4003  0.8832
    11 C(13)  Bbb     0.0098     1.311     0.468     0.437  0.1413  0.9158  0.3760
              Bcc     0.0132     1.773     0.633     0.591  0.9593 -0.0329 -0.2803
 
              Baa    -0.0028    -1.520    -0.542    -0.507 -0.4848 -0.5265  0.6984
    12 H(1)   Bbb     0.0012     0.664     0.237     0.222  0.8367 -0.0466  0.5456
              Bcc     0.0016     0.855     0.305     0.285 -0.2547  0.8489  0.4632
 
              Baa    -0.0291    -3.904    -1.393    -1.302  0.0452  0.9123  0.4071
    13 C(13)  Bbb    -0.0246    -3.296    -1.176    -1.100  0.9609  0.0717 -0.2675
              Bcc     0.0537     7.200     2.569     2.402  0.2732 -0.4033  0.8733
 
              Baa    -0.0012    -0.630    -0.225    -0.210  0.0394  0.8167 -0.5758
    14 H(1)   Bbb    -0.0007    -0.390    -0.139    -0.130  0.2856  0.5430  0.7897
              Bcc     0.0019     1.021     0.364     0.340  0.9575 -0.1956 -0.2118
 
              Baa    -0.0274    -3.675    -1.311    -1.226  0.2533 -0.3967  0.8823
    15 C(13)  Bbb     0.0124     1.663     0.593     0.555 -0.1204  0.8920  0.4357
              Bcc     0.0150     2.012     0.718     0.671  0.9599  0.2165 -0.1782
 
              Baa    -0.0011    -0.575    -0.205    -0.192  0.0012  0.1493  0.9888
    16 H(1)   Bbb    -0.0007    -0.352    -0.125    -0.117 -0.3453  0.9281 -0.1397
              Bcc     0.0017     0.927     0.331     0.309  0.9385  0.3412 -0.0527
 
              Baa    -0.0045    -2.423    -0.865    -0.808  0.0096  0.9045  0.4265
    17 H(1)   Bbb    -0.0006    -0.323    -0.115    -0.108  0.2248 -0.4175  0.8804
              Bcc     0.0051     2.746     0.980     0.916  0.9744  0.0874 -0.2073
 
              Baa    -0.1876   -25.170    -8.981    -8.396  0.9470 -0.0608 -0.3154
    18 C(13)  Bbb    -0.1770   -23.748    -8.474    -7.921  0.1861  0.9041  0.3846
              Bcc     0.3645    48.918    17.455    16.317  0.2618 -0.4230  0.8675
 
              Baa    -0.0345   -18.395    -6.564    -6.136  0.9598 -0.1383 -0.2444
    19 H(1)   Bbb    -0.0283   -15.101    -5.388    -5.037  0.2778  0.3420  0.8977
              Bcc     0.0628    33.496    11.952    11.173  0.0406  0.9295 -0.3667
 
              Baa    -0.0232   -12.357    -4.409    -4.122  0.8619  0.4974  0.0989
    20 H(1)   Bbb    -0.0028    -1.483    -0.529    -0.495  0.1145 -0.3808  0.9175
              Bcc     0.0259    13.841     4.939     4.617 -0.4940  0.7795  0.3851
 
              Baa    -0.0262   -14.000    -4.995    -4.670  0.8424 -0.3319 -0.4245
    21 H(1)   Bbb    -0.0033    -1.756    -0.627    -0.586  0.2619 -0.4363  0.8608
              Bcc     0.0295    15.756     5.622     5.256  0.4709  0.8364  0.2806
 
              Baa    -1.1538    83.489    29.791    27.849  0.0685  0.2702  0.9604
    22 O(17)  Bbb    -1.0826    78.337    27.953    26.130  0.7741  0.5929 -0.2220
              Bcc     2.2364  -161.826   -57.743   -53.979 -0.6294  0.7586 -0.1686
 
              Baa    -0.5572    40.322    14.388    13.450  0.8272  0.4937 -0.2683
    23 O(17)  Bbb    -0.3793    27.447     9.794     9.155  0.0805  0.3684  0.9262
              Bcc     0.9366   -67.769   -24.182   -22.605 -0.5561  0.7878 -0.2650
 
              Baa    -0.0240   -12.794    -4.565    -4.268  0.8986  0.1598 -0.4087
    24 H(1)   Bbb    -0.0144    -7.661    -2.733    -2.555 -0.3485  0.8258 -0.4433
              Bcc     0.0383    20.454     7.299     6.823  0.2667  0.5408  0.7978
 

 ---------------------------------------------------------------------------------

 Calling FoFJK, ICntrl=    100147 FMM=F ISym2X=0 I1Cent= 0 IOpClX= 1 NMat=1 NMatS=1 NMatT=0.
 ***** Axes restored to original set *****
 -------------------------------------------------------------------
 Center     Atomic                   Forces (Hartrees/Bohr)
 Number     Number              X              Y              Z
 -------------------------------------------------------------------
      1        6          -0.054618602   -0.002118734    0.006866624
      2        6          -0.001577819    0.010758821    0.001008858
      3        6           0.008636808   -0.004615294    0.006338387
      4        6          -0.006963405   -0.005592477   -0.000083441
      5        1           0.000064630    0.000182627   -0.000189455
      6        6           0.002423448    0.001932196    0.000237578
      7        1           0.000287136   -0.000230110   -0.000485293
      8        6           0.003684966    0.004353837   -0.000969865
      9        1           0.000003452    0.000101619   -0.000007076
     10        6          -0.002029861   -0.000462100   -0.000066663
     11        6           0.002115987   -0.000515770    0.000936674
     12        1           0.000051280   -0.000198787    0.000132036
     13        6          -0.000262553    0.002805356   -0.001315294
     14        1          -0.000059274   -0.000088726    0.000072331
     15        6          -0.003018017   -0.002366742    0.000080974
     16        1          -0.000122766    0.000054765   -0.000086108
     17        1           0.000023301   -0.000009867    0.000006684
     18        6           0.037211641   -0.052071388   -0.052371483
     19        1           0.010278371    0.013986700    0.022226995
     20        1          -0.003533070    0.006428156    0.016426922
     21        1           0.000871097   -0.000006819   -0.000867484
     22        8          -0.026242319   -0.012291018   -0.008626843
     23        8           0.035414482    0.039795204    0.007401511
     24        1          -0.002638912    0.000168551    0.003333432
 -------------------------------------------------------------------
 Cartesian Forces:  Max     0.054618602 RMS     0.014545061
 FormGI is forming the generalized inverse of G from B-inverse, IUseBI=4.

 GradGradGradGradGradGradGradGradGradGradGradGradGradGradGradGradGradGrad
 Berny optimization.
 Internal  Forces:  Max     0.051672261 RMS     0.010135333
 Search for a saddle point.
 Step number   1 out of a maximum of  144
 All quantities printed in internal units (Hartrees-Bohrs-Radians)
 Swapping is turned off.
 Second derivative matrix not updated -- analytic derivatives used.
 ITU=  0
     Eigenvalues ---   -0.15554  -0.01810  -0.00431   0.00366   0.00599
     Eigenvalues ---    0.01317   0.01349   0.01495   0.01645   0.01654
     Eigenvalues ---    0.01892   0.01905   0.02002   0.02137   0.02192
     Eigenvalues ---    0.02288   0.02327   0.02386   0.02450   0.02559
     Eigenvalues ---    0.02740   0.02817   0.03019   0.03104   0.05834
     Eigenvalues ---    0.07945   0.09731   0.10764   0.11122   0.11252
     Eigenvalues ---    0.11664   0.11986   0.12222   0.12489   0.15215
     Eigenvalues ---    0.16996   0.17870   0.18136   0.19046   0.19541
     Eigenvalues ---    0.19850   0.20064   0.24732   0.28746   0.29033
     Eigenvalues ---    0.29675   0.34773   0.35326   0.35704   0.35768
     Eigenvalues ---    0.35930   0.36049   0.36102   0.36579   0.36640
     Eigenvalues ---    0.36773   0.37860   0.40003   0.42187   0.42572
     Eigenvalues ---    0.44213   0.50290   0.52438   0.52921   0.54441
     Eigenvalues ---    0.55112
 Eigenvectors required to have negative eigenvalues:
                          R24       R20       A38       R25       D10
   1                   -0.68339   0.50522  -0.32650   0.17914   0.16802
                          D13       R3        D12       D9        A34
   1                    0.16124  -0.12647  -0.11198  -0.10520   0.09464
 RFO step:  Lambda0=3.966714880D-03 Lambda=-8.59816453D-02.
 Linear search not attempted -- option 19 set.
 Maximum step size (   0.300) exceeded in Quadratic search.
    -- Step size scaled by   0.270
 Iteration  1 RMS(Cart)=  0.07729116 RMS(Int)=  0.00161631
 Iteration  2 RMS(Cart)=  0.00327242 RMS(Int)=  0.00023378
 Iteration  3 RMS(Cart)=  0.00000746 RMS(Int)=  0.00023376
 Iteration  4 RMS(Cart)=  0.00000000 RMS(Int)=  0.00023376
 Variable       Old X    -DE/DX   Delta X   Delta X   Delta X     New X
                                 (Linear)    (Quad)   (Total)
    R1        2.65396  -0.00783   0.00000  -0.00752  -0.00752   2.64643
    R2        2.72695  -0.00708   0.00000  -0.00416  -0.00416   2.72279
    R3        2.65701   0.04640   0.00000   0.02109   0.02109   2.67810
    R4        2.66782  -0.00054   0.00000   0.00296   0.00296   2.67078
    R5        2.05400   0.00007   0.00000   0.00013   0.00013   2.05413
    R6        2.56780   0.00481   0.00000   0.00158   0.00158   2.56938
    R7        2.05164   0.00023   0.00000  -0.00019  -0.00019   2.05145
    R8        2.70488  -0.00650   0.00000  -0.00127  -0.00127   2.70361
    R9        2.05207   0.00007   0.00000   0.00001   0.00001   2.05208
   R10        2.69240  -0.00098   0.00000  -0.00212  -0.00212   2.69028
   R11        2.68497   0.00098   0.00000  -0.00112  -0.00112   2.68385
   R12        2.66832   0.00230   0.00000   0.00121   0.00121   2.66952
   R13        2.59314  -0.00092   0.00000   0.00031   0.00031   2.59346
   R14        2.05260   0.00023   0.00000   0.00032   0.00032   2.05292
   R15        2.67166   0.00154   0.00000  -0.00007  -0.00007   2.67159
   R16        2.04964   0.00012   0.00000  -0.00002  -0.00002   2.04962
   R17        2.60044  -0.00226   0.00000  -0.00072  -0.00072   2.59972
   R18        2.04978  -0.00002   0.00000  -0.00007  -0.00007   2.04971
   R19        2.05225   0.00015   0.00000  -0.00004  -0.00004   2.05221
   R20        3.16036  -0.03833   0.00000  -0.17482  -0.17524   2.98512
   R21        2.04658   0.00458   0.00000   0.00377   0.00386   2.05044
   R22        2.04596   0.00061   0.00000  -0.00006  -0.00006   2.04589
   R23        3.44540  -0.00792   0.00000  -0.03425  -0.03393   3.41147
   R24        3.30334  -0.02708   0.00000  -0.20373  -0.20373   3.09960
   R25        2.69845  -0.05167   0.00000  -0.03310  -0.03310   2.66535
   R26        1.82763   0.00314   0.00000   0.00089   0.00089   1.82852
    A1        2.05483  -0.00108   0.00000   0.00228   0.00228   2.05711
    A2        2.12114   0.00683   0.00000  -0.00642  -0.00643   2.11472
    A3        2.10716  -0.00573   0.00000   0.00409   0.00408   2.11124
    A4        2.12645   0.00148   0.00000   0.00021   0.00021   2.12666
    A5        2.07595  -0.00085   0.00000  -0.00130  -0.00131   2.07464
    A6        2.08079  -0.00063   0.00000   0.00108   0.00108   2.08187
    A7        2.11571   0.00152   0.00000  -0.00125  -0.00125   2.11446
    A8        2.06483  -0.00068   0.00000   0.00094   0.00094   2.06577
    A9        2.10264  -0.00084   0.00000   0.00031   0.00031   2.10295
   A10        2.11628  -0.00056   0.00000   0.00015   0.00015   2.11642
   A11        2.10260   0.00021   0.00000  -0.00038  -0.00038   2.10222
   A12        2.06430   0.00035   0.00000   0.00024   0.00024   2.06453
   A13        2.08152   0.00072   0.00000  -0.00100  -0.00100   2.08051
   A14        2.12814   0.00033   0.00000   0.00018   0.00018   2.12833
   A15        2.07352  -0.00105   0.00000   0.00082   0.00082   2.07434
   A16        2.07154  -0.00208   0.00000  -0.00040  -0.00040   2.07114
   A17        2.13098   0.00120   0.00000   0.00064   0.00064   2.13162
   A18        2.08066   0.00088   0.00000  -0.00024  -0.00024   2.08043
[...]
    13  C   -0.000000  -0.002655   0.000001  -0.002098   0.000186   0.000008
    14  H   -0.000000   0.000001  -0.000000  -0.000082   0.000119  -0.000006
    15  C    0.000003  -0.000827   0.000058   0.000045   0.000466  -0.000001
    16  H   -0.000000  -0.000172   0.000015   0.000002  -0.000011  -0.000000
    17  H   -0.000000   0.000018   0.000000   0.000004   0.000101   0.000001
    18  C    0.000032   0.000128  -0.000002   0.000011   0.000000  -0.000000
    19  H   -0.000015   0.000002  -0.000001  -0.000000  -0.000000  -0.000000
    20  H   -0.000126   0.000000  -0.000000  -0.000000   0.000000  -0.000000
    21  H   -0.000014  -0.000001  -0.000000  -0.000000   0.000000  -0.000000
    22  O   -0.000029  -0.000012  -0.000000  -0.000001   0.000000   0.000000
    23  O    0.000002   0.000009   0.000000   0.000000  -0.000000  -0.000000
    24  H   -0.000000  -0.000019   0.000001  -0.000000   0.000000  -0.000000
              13         14         15         16         17         18
     1  C    0.000001  -0.000000   0.000002  -0.000000   0.000000  -0.037305
     2  C    0.000065  -0.000001   0.000004  -0.000001  -0.000000  -0.013558
     3  C    0.000003  -0.000000  -0.000024   0.000002  -0.000000  -0.004134
     4  C   -0.000025  -0.000000   0.001385   0.000045   0.000001   0.000049
     5  H   -0.000000  -0.000000   0.000000   0.000000   0.000000   0.000246
     6  C   -0.000080  -0.000013   0.000430  -0.000023  -0.000004   0.000009
     7  H   -0.000000  -0.000000   0.000003  -0.000000  -0.000000   0.000032
     8  C   -0.002655   0.000001  -0.000827  -0.000172   0.000018   0.000128
     9  H    0.000001  -0.000000   0.000058   0.000015   0.000000  -0.000002
    10  C   -0.002098  -0.000082   0.000045   0.000002   0.000004   0.000011
    11  C    0.000186   0.000119   0.000466  -0.000011   0.000101   0.000000
    12  H    0.000008  -0.000006  -0.000001  -0.000000   0.000001  -0.000000
    13  C    0.051942  -0.000113   0.000810  -0.000074   0.000084  -0.000000
    14  H   -0.000113   0.000938  -0.000008  -0.000000  -0.000002  -0.000000
    15  C    0.000810  -0.000008  -0.031599   0.000137   0.000077   0.000000
    16  H   -0.000074  -0.000000   0.000137   0.001112   0.000002   0.000000
    17  H    0.000084  -0.000002   0.000077   0.000002  -0.002565   0.000000
    18  C   -0.000000  -0.000000   0.000000   0.000000   0.000000   0.567076
    19  H    0.000000  -0.000000   0.000000   0.000000   0.000000   0.044540
    20  H   -0.000000  -0.000000  -0.000000  -0.000000  -0.000000  -0.006188
    21  H    0.000000  -0.000000   0.000000  -0.000000  -0.000000  -0.009767
    22  O    0.000000  -0.000000   0.000000  -0.000000  -0.000000  -0.074603
    23  O   -0.000000   0.000000  -0.000000   0.000000   0.000000   0.013378
    24  H    0.000000   0.000000   0.000000  -0.000000  -0.000000  -0.000417
              19         20         21         22         23         24
     1  C    0.003870   0.001564   0.002492   0.008024  -0.002507   0.000137
     2  C   -0.000367  -0.000052   0.000097   0.002116  -0.000245   0.000033
     3  C    0.001009  -0.000220  -0.000683   0.000321  -0.001049   0.000214
     4  C   -0.000005   0.000005  -0.000007  -0.000004   0.000021   0.000014
     5  H    0.000124  -0.000019  -0.000357  -0.000083   0.000129  -0.000033
     6  C    0.000008  -0.000004   0.000010   0.000005  -0.000000  -0.000002
     7  H   -0.000015  -0.000126  -0.000014  -0.000029   0.000002  -0.000000
     8  C    0.000002   0.000000  -0.000001  -0.000012   0.000009  -0.000019
     9  H   -0.000001  -0.000000  -0.000000  -0.000000   0.000000   0.000001
    10  C   -0.000000  -0.000000  -0.000000  -0.000001   0.000000  -0.000000
    11  C   -0.000000   0.000000   0.000000   0.000000  -0.000000   0.000000
    12  H   -0.000000  -0.000000  -0.000000   0.000000  -0.000000  -0.000000
    13  C    0.000000  -0.000000   0.000000   0.000000  -0.000000   0.000000
    14  H   -0.000000  -0.000000  -0.000000  -0.000000   0.000000   0.000000
    15  C    0.000000  -0.000000   0.000000   0.000000  -0.000000   0.000000
    16  H    0.000000  -0.000000  -0.000000  -0.000000   0.000000  -0.000000
    17  H    0.000000  -0.000000  -0.000000  -0.000000   0.000000  -0.000000
    18  C    0.044540  -0.006188  -0.009767  -0.074603   0.013378  -0.000417
    19  H   -0.105712   0.003496   0.002385  -0.026912   0.009941   0.000495
    20  H    0.003496  -0.019325   0.002080   0.001147  -0.000118  -0.000000
    21  H    0.002385   0.002080  -0.013803   0.002403  -0.001132   0.000007
    22  O   -0.026912   0.001147   0.002403   0.588508  -0.053758   0.000393
    23  O    0.009941  -0.000118  -0.001132  -0.053758   0.111314  -0.000325
    24  H    0.000495  -0.000000   0.000007   0.000393  -0.000325  -0.004066
 Mulliken charges and spin densities:
               1          2
     1  C    0.085739  -0.087540
     2  C   -0.155847   0.139161
     3  C   -0.186544   0.049107
     4  C   -0.134357  -0.042128
     5  H    0.128452  -0.002282
     6  C    0.059150  -0.037552
     7  H    0.120989  -0.006372
     8  C    0.051443   0.057278
     9  H    0.126208   0.001653
    10  C   -0.131368   0.037606
    11  C   -0.130132  -0.023712
    12  H    0.124713  -0.001725
    13  C   -0.127264   0.048055
    14  H    0.126748   0.000832
    15  C   -0.137173  -0.029041
    16  H    0.122825   0.001032
    17  H    0.126305  -0.002284
    18  C   -0.449906   0.479495
    19  H    0.323710  -0.067141
    20  H    0.151323  -0.017759
    21  H    0.155161  -0.016288
    22  O   -0.288137   0.447515
    23  O   -0.316688   0.075659
    24  H    0.354651  -0.003569
 Sum of Mulliken charges =  -0.00000   1.00000
 Mulliken charges and spin densities with hydrogens summed into heavy atoms:
               1          2
     1  C    0.085739  -0.087540
     2  C   -0.034859   0.132789
     3  C   -0.058092   0.046825
     4  C   -0.008149  -0.040475
     6  C    0.059150  -0.037552
     8  C    0.051443   0.057278
    10  C   -0.006654   0.035880
    11  C   -0.003384  -0.022880
    13  C   -0.000959   0.045771
    15  C   -0.014347  -0.028009
    18  C   -0.143422   0.445447
    22  O    0.035572   0.380374
    23  O    0.037963   0.072091
 Electronic spatial extent (au):  <R**2>=           2706.2277
 Charge=             -0.0000 electrons
 Dipole moment (field-independent basis, Debye):
    X=              2.5630    Y=             -0.5721    Z=              1.3927  Tot=              2.9725
 Quadrupole moment (field-independent basis, Debye-Ang):
   XX=            -79.1583   YY=            -66.4808   ZZ=            -81.1182
   XY=              0.7623   XZ=            -10.4085   YZ=              1.7355
 Traceless Quadrupole moment (field-independent basis, Debye-Ang):
   XX=             -3.5725   YY=              9.1050   ZZ=             -5.5324
   XY=              0.7623   XZ=            -10.4085   YZ=              1.7355
 Octapole moment (field-independent basis, Debye-Ang**2):
  XXX=             42.6986  YYY=             -1.5897  ZZZ=            -12.0491  XYY=             -3.8113
  XXY=              0.7326  XXZ=             15.7680  XZZ=             -8.0414  YZZ=             -2.0778
  YYZ=             -2.0774  XYZ=             -3.8838
 Hexadecapole moment (field-independent basis, Debye-Ang**3):
 XXXX=          -2567.4179 YYYY=           -559.2641 ZZZZ=           -383.7811 XXXY=             -2.7431
 XXXZ=           -132.5941 YYYX=              2.6752 YYYZ=              4.1026 ZZZX=             26.5573
 ZZZY=              6.0122 XXYY=           -492.5197 XXZZ=           -525.0242 YYZZ=           -169.3664
 XXYZ=              1.4112 YYXZ=             -1.8929 ZZXY=              4.8710
 N-N= 7.352228164465D+02 E-N=-2.810111232950D+03  KE= 5.709649057659D+02
                          Isotropic Fermi Contact Couplings
        Atom                 a.u.       MegaHertz       Gauss      10(-4) cm-1
     1  C(13)             -0.02551     -28.67550     -10.23213      -9.56512
     2  C(13)              0.02373      26.68264       9.52103       8.90037
     3  C(13)              0.00952      10.70528       3.81991       3.57090
     4  C(13)             -0.00888      -9.98773      -3.56387      -3.33155
     5  H(1)              -0.00087      -3.89544      -1.38999      -1.29938
     6  C(13)             -0.01042     -11.71757      -4.18112      -3.90856
     7  H(1)              -0.00218      -9.72574      -3.47038      -3.24416
     8  C(13)              0.01061      11.92619       4.25556       3.97815
     9  H(1)               0.00054       2.39828       0.85577       0.79998
    10  C(13)              0.00666       7.48570       2.67108       2.49696
    11  C(13)             -0.00535      -6.00913      -2.14421      -2.00443
    12  H(1)              -0.00058      -2.59292      -0.92522      -0.86491
    13  C(13)              0.00826       9.28622       3.31355       3.09755
    14  H(1)               0.00028       1.23988       0.44242       0.41358
    15  C(13)             -0.00655      -7.36060      -2.62645      -2.45523
    16  H(1)               0.00033       1.49118       0.53209       0.49741
    17  H(1)              -0.00074      -3.30593      -1.17964      -1.10274
    18  C(13)              0.13337     149.93054      53.49894      50.01144
    19  H(1)              -0.03379    -151.01732     -53.88673     -50.37396
    20  H(1)              -0.00503     -22.48940      -8.02478      -7.50165
    21  H(1)              -0.00398     -17.80917      -6.35475      -5.94050
    22  O(17)              0.05730     -34.73756     -12.39523     -11.58720
    23  O(17)              0.01791     -10.85716      -3.87411      -3.62156
    24  H(1)              -0.00198      -8.86004      -3.16148      -2.95539
 --------------------------------------------------------
       Center         ----  Spin Dipole Couplings  ----
                      3XX-RR        3YY-RR        3ZZ-RR
 --------------------------------------------------------
     1   Atom        0.034290      0.021150     -0.055439
     2   Atom       -0.045262     -0.067665      0.112927
     3   Atom       -0.017139     -0.020592      0.037731
     4   Atom        0.014576      0.016849     -0.031425
     5   Atom       -0.001903      0.003761     -0.001857
     6   Atom        0.012569      0.008952     -0.021521
     7   Atom       -0.004276      0.008556     -0.004280
     8   Atom       -0.017203     -0.026262      0.043465
     9   Atom        0.002230     -0.001141     -0.001089
    10   Atom       -0.010369     -0.017171      0.027540
    11   Atom        0.007697      0.008433     -0.016130
    12   Atom       -0.000409      0.001952     -0.001543
    13   Atom       -0.013670     -0.022603      0.036273
    14   Atom        0.000645      0.000150     -0.000795
    15   Atom        0.009636      0.009842     -0.019478
    16   Atom        0.001721     -0.000983     -0.000738
    17   Atom        0.002994     -0.002717     -0.000277
    18   Atom       -0.178494     -0.242776      0.421270
    19   Atom       -0.095908     -0.098231      0.194139
    20   Atom       -0.030244      0.031019     -0.000775
    21   Atom        0.000574     -0.004968      0.004394
    22   Atom       -0.957064     -0.945889      1.902953
    23   Atom       -0.205924     -0.260511      0.466435
    24   Atom        0.007612      0.001888     -0.009500
 --------------------------------------------------------
                        XY            XZ            YZ
 --------------------------------------------------------
     1   Atom       -0.003875     -0.012900     -0.005063
     2   Atom        0.002545      0.053716      0.006929
     3   Atom       -0.001874      0.018532      0.002401
     4   Atom       -0.002064     -0.013615     -0.001029
     5   Atom       -0.000015      0.001007     -0.002824
     6   Atom       -0.001260     -0.010033     -0.000472
     7   Atom        0.001198      0.002680      0.000729
     8   Atom       -0.001525      0.021734      0.000956
     9   Atom       -0.000612     -0.000416     -0.000489
    10   Atom        0.000834      0.014346      0.001390
    11   Atom       -0.000837     -0.007893     -0.000196
    12   Atom        0.000754      0.000262     -0.000058
    13   Atom       -0.000699      0.018354      0.001461
    14   Atom       -0.000776     -0.000238      0.000257
    15   Atom       -0.000638     -0.009968     -0.000702
    16   Atom       -0.000282     -0.000526     -0.000062
    17   Atom       -0.002331     -0.000906      0.000763
    18   Atom       -0.013784      0.218310     -0.048451
    19   Atom        0.000987      0.048903      0.022142
    20   Atom       -0.004606      0.006616      0.016927
    21   Atom        0.030728     -0.008520     -0.016604
    22   Atom        0.004756      0.072739     -0.101575
    23   Atom       -0.023354      0.043234      0.057327
    24   Atom       -0.018792     -0.000970      0.004031
 --------------------------------------------------------


 ---------------------------------------------------------------------------------
              Anisotropic Spin Dipole Couplings in Principal Axis System
 ---------------------------------------------------------------------------------

       Atom             a.u.   MegaHertz   Gauss  10(-4) cm-1        Axes

              Baa    -0.0576    -7.736    -2.760    -2.580  0.1415  0.0704  0.9874
     1 C(13)  Bbb     0.0209     2.805     1.001     0.936  0.1895  0.9771 -0.0968
              Bcc     0.0367     4.931     1.760     1.645  0.9716 -0.2008 -0.1249
 
              Baa    -0.0680    -9.120    -3.254    -3.042 -0.0719  0.9973 -0.0168
     2 C(13)  Bbb    -0.0618    -8.287    -2.957    -2.764  0.9532  0.0638 -0.2956
              Bcc     0.1297    17.407     6.211     5.806  0.2938  0.0373  0.9552
 
              Baa    -0.0244    -3.280    -1.171    -1.094  0.7957  0.5479 -0.2583
     3 C(13)  Bbb    -0.0190    -2.550    -0.910    -0.851 -0.5309  0.8361  0.1380
              Bcc     0.0435     5.831     2.081     1.945  0.2916  0.0273  0.9561
 
              Baa    -0.0352    -4.723    -1.685    -1.575  0.2649  0.0296  0.9638
     4 C(13)  Bbb     0.0157     2.112     0.754     0.705  0.5305  0.8302 -0.1713
              Bcc     0.0195     2.611     0.932     0.871  0.8052 -0.5567 -0.2042
 
              Baa    -0.0036    -1.897    -0.677    -0.633 -0.4924  0.3126  0.8123
     5 H(1)   Bbb    -0.0014    -0.749    -0.267    -0.250  0.8684  0.2398  0.4341
              Bcc     0.0050     2.646     0.944     0.883 -0.0591  0.9191 -0.3896
 
              Baa    -0.0243    -3.257    -1.162    -1.087  0.2634  0.0237  0.9644
     6 C(13)  Bbb     0.0088     1.179     0.421     0.393  0.1533  0.9860 -0.0661
              Bcc     0.0155     2.078     0.741     0.693  0.9524 -0.1652 -0.2561
 
              Baa    -0.0070    -3.716    -1.326    -1.240  0.7106 -0.0218 -0.7033
     7 H(1)   Bbb    -0.0018    -0.948    -0.338    -0.316  0.6954 -0.1305  0.7067
              Bcc     0.0087     4.664     1.664     1.556  0.1071  0.9912  0.0775
 
              Baa    -0.0273    -3.657    -1.305    -1.220  0.4688  0.8695 -0.1558
     8 C(13)  Bbb    -0.0232    -3.113    -1.111    -1.038  0.8287 -0.4940 -0.2631
              Bcc     0.0505     6.770     2.416     2.258  0.3057  0.0058  0.9521
 
              Baa    -0.0017    -0.928    -0.331    -0.310  0.1816  0.7270  0.6622
     9 H(1)   Bbb    -0.0006    -0.336    -0.120    -0.112 -0.0348 -0.6682  0.7431
              Bcc     0.0024     1.264     0.451     0.422  0.9828 -0.1580 -0.0960
 
              Baa    -0.0173    -2.319    -0.827    -0.773 -0.1654  0.9860  0.0224
    10 C(13)  Bbb    -0.0151    -2.030    -0.724    -0.677  0.9334  0.1638 -0.3192
              Bcc     0.0324     4.349     1.552     1.451  0.3184  0.0319  0.9474
 
              Baa    -0.0185    -2.484    -0.886    -0.829  0.2888  0.0159  0.9573
    11 C(13)  Bbb     0.0082     1.094     0.390     0.365  0.3414  0.9324 -0.1185
              Bcc     0.0104     1.391     0.496     0.464  0.8944 -0.3611 -0.2638
 
              Baa    -0.0016    -0.862    -0.308    -0.288 -0.2527  0.0691  0.9651
    12 H(1)   Bbb    -0.0006    -0.297    -0.106    -0.099  0.9259 -0.2722  0.2619
              Bcc     0.0022     1.159     0.414     0.387  0.2808  0.9598  0.0048
 
              Baa    -0.0230    -3.087    -1.101    -1.030  0.2989  0.9472 -0.1159
    13 C(13)  Bbb    -0.0193    -2.591    -0.925    -0.864  0.9021 -0.3200 -0.2895
              Bcc     0.0423     5.678     2.026     1.894  0.3113  0.0180  0.9501
 
              Baa    -0.0009    -0.460    -0.164    -0.153  0.0437 -0.2146  0.9757
    14 H(1)   Bbb    -0.0004    -0.218    -0.078    -0.073  0.6081  0.7806  0.1444
              Bcc     0.0013     0.678     0.242     0.226  0.7926 -0.5871 -0.1646
 
              Baa    -0.0226    -3.031    -1.081    -1.011  0.2959  0.0265  0.9549
    15 C(13)  Bbb     0.0098     1.316     0.470     0.439  0.1229  0.9903 -0.0656
              Bcc     0.0128     1.715     0.612     0.572  0.9473 -0.1368 -0.2898
 
              Baa    -0.0011    -0.570    -0.203    -0.190  0.1717  0.8827  0.4375
    16 H(1)   Bbb    -0.0008    -0.419    -0.149    -0.140  0.1326 -0.4608  0.8775
              Bcc     0.0019     0.989     0.353     0.330  0.9762 -0.0926 -0.1961
 
              Baa    -0.0036    -1.922    -0.686    -0.641  0.3144  0.9403 -0.1301
    17 H(1)   Bbb    -0.0005    -0.269    -0.096    -0.090  0.2758  0.0407  0.9604
              Bcc     0.0041     2.191     0.782     0.731  0.9083 -0.3378 -0.2466
 
              Baa    -0.2504   -33.600   -11.989   -11.208  0.8585 -0.4095 -0.3086
    18 C(13)  Bbb    -0.2454   -32.925   -11.748   -10.983  0.4095  0.9098 -0.0680
              Bcc     0.4957    66.525    23.738    22.190  0.3086 -0.0680  0.9488
 
              Baa    -0.1052   -56.128   -20.028   -18.722  0.8826  0.4358 -0.1764
    19 H(1)   Bbb    -0.0986   -52.592   -18.766   -17.543 -0.4418  0.8971  0.0059
              Bcc     0.2038   108.720    38.794    36.265  0.1609  0.0727  0.9843
 
              Baa    -0.0328   -17.504    -6.246    -5.839  0.9523  0.1406 -0.2710
    20 H(1)   Bbb    -0.0056    -2.974    -1.061    -0.992  0.3043 -0.3681  0.8786
              Bcc     0.0384    20.479     7.307     6.831 -0.0238  0.9191  0.3933
 
              Baa    -0.0343   -18.302    -6.531    -6.105 -0.6229  0.7592  0.1886
    21 H(1)   Bbb    -0.0036    -1.941    -0.693    -0.648  0.4739  0.1744  0.8631
              Bcc     0.0379    20.243     7.223     6.752  0.6224  0.6270 -0.4684
 
              Baa    -0.9629    69.676    24.862    23.241  0.8769 -0.4790 -0.0392
    22 O(17)  Bbb    -0.9455    68.415    24.412    22.821  0.4800  0.8771  0.0190
              Bcc     1.9084  -138.091   -49.274   -46.062  0.0253 -0.0355  0.9990
 
              Baa    -0.2756    19.939     7.115     6.651  0.3680  0.9252 -0.0929
    23 O(17)  Bbb    -0.1979    14.319     5.109     4.776  0.9278 -0.3719 -0.0283
              Bcc     0.4734   -34.258   -12.224   -11.427  0.0607  0.0758  0.9953
 
              Baa    -0.0153    -8.175    -2.917    -2.727  0.5703  0.7167 -0.4012
    24 H(1)   Bbb    -0.0088    -4.682    -1.671    -1.562  0.3338  0.2441  0.9105
              Bcc     0.0241    12.857     4.588     4.289  0.7505 -0.6532 -0.1000
 

 ---------------------------------------------------------------------------------



 IT IS DOUBTED WHETHER A MAN EVER BRINGS HIS FACULTIES TO BEAR WITH THEIR FULL FORCE
 ON A SUBJECT UNTIL HE WRITES UPON IT.

                          -- CICERO
 Error termination request processed by link 9999.
 Error termination via Lnk1e in /shared/centos7/gaussian/g16/l9999.exe at Tue Mar 19 10:01:28 2019.
 Job cpu time:       0 days 14 hours 47 minutes 42.0 seconds.
 Elapsed time:       0 days  0 hours 45 minutes 35.9 seconds.
 File lengths (MBytes):  RWF=   1440 Int=      0 D2E=      0 Chk=     32 Scr=     32
