 Entering Gaussian System, Link 0=g16
 Input=rxn908final.com
 Output=rxn908final.log
 Initial command:
 /shared/centos7/gaussian/g16/l1.exe "/scratch/dinius.ab/QMscratch/Gau-7662.inp" -scrdir="/scratch/dinius.ab/QMscratch/"
 Default is to use a total of  20 processors:
                               20 via shared-memory
                                1 via Linda
 Entering Link 1 = /shared/centos7/gaussian/g16/l1.exe PID=      7663.
  
 Copyright (c) 1988,1990,1992,1993,1995,1998,2003,2009,2016,
            Gaussian, Inc.  All Rights Reserved.
  
 This is part of the Gaussian(R) 16 program.  It is based on
 the Gaussian(R) 09 system (copyright 2009, Gaussian, Inc.),
 the Gaussian(R) 03 system (copyright 2003, Gaussian, Inc.),
 the Gaussian(R) 98 system (copyright 1998, Gaussian, Inc.),
 the Gaussian(R) 94 system (copyright 1995, Gaussian, Inc.),
 the Gaussian 92(TM) system (copyright 1992, Gaussian, Inc.),
 the Gaussian 90(TM) system (copyright 1990, Gaussian, Inc.),
 the Gaussian 88(TM) system (copyright 1988, Gaussian, Inc.),
 the Gaussian 86(TM) system (copyright 1986, Carnegie Mellon
 University), and the Gaussian 82(TM) system (copyright 1983,
 Carnegie Mellon University). Gaussian is a federally registered
 trademark of Gaussian, Inc.
  
 This software contains proprietary and confidential information,
 including trade secrets, belonging to Gaussian, Inc.
  
 This software is provided under written license and may be
 used, copied, transmitted, or stored only in accord with that
 written license.
  
 The following legend is applicable only to US Government
 contracts under FAR:
  
                    RESTRICTED RIGHTS LEGEND
  
 Use, reproduction and disclosure by the US Government is
 subject to restrictions as set forth in subparagraphs (a)
 and (c) of the Commercial Computer Software - Restricted
 Rights clause in FAR 52.227-19.
  
 Gaussian, Inc.
 340 Quinnipiac St., Bldg. 40, Wallingford CT 06492
  
  
 ---------------------------------------------------------------
 Warning -- This program may not be used in any manner that
 competes with the business of Gaussian, Inc. or will provide
 assistance to any competitor of Gaussian, Inc.  The licensee
 of this program is prohibited from giving any competitor of
 Gaussian, Inc. access to this program.  By using this program,
 the user acknowledges that Gaussian, Inc. is engaged in the
 business of creating and licensing software in the field of
 computational chemistry and represents and warrants to the
 licensee that it is not a competitor of Gaussian, Inc. and that
 it will not use this program in any manner prohibited above.
 ---------------------------------------------------------------
  

 Cite this work as:
 Gaussian 16, Revision A.03,
 M. J. Frisch, G. W. Trucks, H. B. Schlegel, G. E. Scuseria, 
 M. A. Robb, J. R. Cheeseman, G. Scalmani, V. Barone, 
 G. A. Petersson, H. Nakatsuji, X. Li, M. Caricato, A. V. Marenich, 
 J. Bloino, B. G. Janesko, R. Gomperts, B. Mennucci, H. P. Hratchian, 
 J. V. Ortiz, A. F. Izmaylov, J. L. Sonnenberg, D. Williams-Young, 
 F. Ding, F. Lipparini, F. Egidi, J. Goings, B. Peng, A. Petrone, 
 T. Henderson, D. Ranasinghe, V. G. Zakrzewski, J. Gao, N. Rega, 
 G. Zheng, W. Liang, M. Hada, M. Ehara, K. Toyota, R. Fukuda, 
 J. Hasegawa, M. Ishida, T. Nakajima, Y. Honda, O. Kitao, H. Nakai, 
 T. Vreven, K. Throssell, J. A. Montgomery, Jr., J. E. Peralta, 
 F. Ogliaro, M. J. Bearpark, J. J. Heyd, E. N. Brothers, K. N. Kudin, 
 V. N. Staroverov, T. A. Keith, R. Kobayashi, J. Normand, 
 K. Raghavachari, A. P. Rendell, J. C. Burant, S. S. Iyengar, 
 J. Tomasi, M. Cossi, J. M. Millam, M. Klene, C. Adamo, R. Cammi, 
 J. W. Ochterski, R. L. Martin, K. Morokuma, O. Farkas, 
 J. B. Foresman, and D. J. Fox, Gaussian, Inc., Wallingford CT, 2016.
 
 ******************************************
 Gaussian 16:  EM64L-G16RevA.03 25-Dec-2016
                19-Feb-2019 
 ******************************************
 ----------------------------------------------------------------------
 # m062x/6-31+g(d,p) Opt=(TS,Loose,maxcycle=1000,CalcFC,NoEigenTest) In
 t(Grid=SG1) freq
 ----------------------------------------------------------------------
 1/5=1,6=1000,7=-1,10=4,11=1,18=20,26=2,38=1/1,3;
 2/9=110,12=2,17=6,18=5,40=1/2;
 3/5=1,6=6,7=111,11=2,25=1,30=1,71=2,74=-55,75=1,140=1/1,2,3;
 4//1;
 5/5=2,38=5/2;
 8/6=4,10=90,11=11/1;
 11/6=1,8=1,9=11,15=111,16=1/1,2,10;
 10/6=1,13=1/2;
 6/7=2,8=2,9=2,10=2,28=1/1;
 7/10=1,18=20,25=1/1,2,3,16;
 1/5=1,6=1000,7=-1,10=4,11=1,18=20,26=2/3(2);
 2/9=110/2;
 99//99;
 2/9=110/2;
 3/5=1,6=6,7=111,11=2,25=1,30=1,71=1,74=-55,75=1/1,2,3;
 4/5=5,16=3,69=1/1;
 5/5=2,38=5/2;
 7//1,2,3,16;
 1/5=1,6=1000,7=-1,11=1,18=20,26=2/3(-5);
 2/9=110/2;
 6/7=2,8=2,9=2,10=2,19=2,28=1/1;
 99/9=1/99;
 -----
 Title
 -----
 Symbolic Z-matrix:
 Charge =  0 Multiplicity = 2
 C                     1.26636   0.42428   0.70388 
 C                     0.3638   -0.61738   0.76705 
 C                     0.82353   1.6804    0.19375 
 C                    -0.46344   1.86063  -0.20719 
 H                     1.53352   2.49467   0.12833 
 C                    -0.979    -0.45816   0.36123 
 H                     0.68489  -1.58249   1.14156 
 C                    -1.4057    0.80046  -0.13566 
 H                    -0.78953   2.81883  -0.59178 
 C                    -1.91612  -1.51867   0.43446 
 C                    -3.20909  -1.33695   0.03197 
 H                    -1.58714  -2.47676   0.81676 
 C                    -3.63118  -0.08427  -0.46534 
 H                    -3.91484  -2.15363   0.0921 
 C                    -2.7489    0.95833  -0.54507 
 H                    -3.06717   1.91949  -0.92879 
 H                    -4.65484   0.04477  -0.78765 
 C                     2.65815   0.24161   1.07192 
 H                     3.21352   0.02774   0.13645 
 H                     2.88105  -0.62993   1.6801 
 H                     3.1938    1.13442   1.38227 
 O                     3.73012  -0.16317  -0.67557 
 O                     3.06111  -1.24974  -1.24036 
 H                     3.62642  -1.99546  -1.00792 
 

 GradGradGradGradGradGradGradGradGradGradGradGradGradGradGradGradGradGrad
 Berny optimization.
 Initialization pass.
                           ----------------------------
                           !    Initial Parameters    !
                           ! (Angstroms and Degrees)  !
 --------------------------                            --------------------------
 ! Name  Definition              Value          Derivative Info.                !
 --------------------------------------------------------------------------------
 ! R1    R(1,2)                  1.3797         calculate D2E/DX2 analytically  !
 ! R2    R(1,3)                  1.4262         calculate D2E/DX2 analytically  !
 ! R3    R(1,18)                 1.4512         calculate D2E/DX2 analytically  !
 ! R4    R(2,6)                  1.4118         calculate D2E/DX2 analytically  !
 ! R5    R(2,7)                  1.0839         calculate D2E/DX2 analytically  !
 ! R6    R(3,4)                  1.36           calculate D2E/DX2 analytically  !
 ! R7    R(3,5)                  1.0823         calculate D2E/DX2 analytically  !
 ! R8    R(4,8)                  1.4202         calculate D2E/DX2 analytically  !
 ! R9    R(4,9)                  1.0828         calculate D2E/DX2 analytically  !
 ! R10   R(6,8)                  1.4188         calculate D2E/DX2 analytically  !
 ! R11   R(6,10)                 1.4171         calculate D2E/DX2 analytically  !
 ! R12   R(8,15)                 1.4131         calculate D2E/DX2 analytically  !
 ! R13   R(10,11)                1.3663         calculate D2E/DX2 analytically  !
 ! R14   R(10,12)                1.0827         calculate D2E/DX2 analytically  !
 ! R15   R(11,13)                1.4123         calculate D2E/DX2 analytically  !
 ! R16   R(11,14)                1.081          calculate D2E/DX2 analytically  !
 ! R17   R(13,15)                1.3681         calculate D2E/DX2 analytically  !
 ! R18   R(13,17)                1.0809         calculate D2E/DX2 analytically  !
 ! R19   R(15,16)                1.0828         calculate D2E/DX2 analytically  !
 ! R20   R(18,19)                1.1087         calculate D2E/DX2 analytically  !
 ! R21   R(18,20)                1.0859         calculate D2E/DX2 analytically  !
 ! R22   R(18,21)                1.0864         calculate D2E/DX2 analytically  !
 ! R23   R(19,22)                0.9812         calculate D2E/DX2 analytically  !
 ! R24   R(22,23)                1.3954         calculate D2E/DX2 analytically  !
 ! R25   R(23,24)                0.9642         calculate D2E/DX2 analytically  !
 ! A1    A(2,1,3)              118.5671         calculate D2E/DX2 analytically  !
 ! A2    A(2,1,18)             121.382          calculate D2E/DX2 analytically  !
 ! A3    A(3,1,18)             119.9574         calculate D2E/DX2 analytically  !
 ! A4    A(1,2,6)              121.5931         calculate D2E/DX2 analytically  !
 ! A5    A(1,2,7)              119.622          calculate D2E/DX2 analytically  !
 ! A6    A(6,2,7)              118.7839         calculate D2E/DX2 analytically  !
 ! A7    A(1,3,4)              121.0633         calculate D2E/DX2 analytically  !
 ! A8    A(1,3,5)              118.721          calculate D2E/DX2 analytically  !
 ! A9    A(4,3,5)              120.2156         calculate D2E/DX2 analytically  !
 ! A10   A(3,4,8)              120.9361         calculate D2E/DX2 analytically  !
 ! A11   A(3,4,9)              120.4635         calculate D2E/DX2 analytically  !
 ! A12   A(8,4,9)              118.6001         calculate D2E/DX2 analytically  !
 ! A13   A(2,6,8)              119.1275         calculate D2E/DX2 analytically  !
 ! A14   A(2,6,10)             121.9862         calculate D2E/DX2 analytically  !
 ! A15   A(8,6,10)             118.8863         calculate D2E/DX2 analytically  !
 ! A16   A(4,8,6)              118.7057         calculate D2E/DX2 analytically  !
 ! A17   A(4,8,15)             122.1869         calculate D2E/DX2 analytically  !
 ! A18   A(6,8,15)             119.1073         calculate D2E/DX2 analytically  !
 ! A19   A(6,10,11)            120.7328         calculate D2E/DX2 analytically  !
 ! A20   A(6,10,12)            118.6543         calculate D2E/DX2 analytically  !
 ! A21   A(11,10,12)           120.6129         calculate D2E/DX2 analytically  !
 ! A22   A(10,11,13)           120.2991         calculate D2E/DX2 analytically  !
 ! A23   A(10,11,14)           120.062          calculate D2E/DX2 analytically  !
 ! A24   A(13,11,14)           119.6389         calculate D2E/DX2 analytically  !
 ! A25   A(11,13,15)           120.2456         calculate D2E/DX2 analytically  !
 ! A26   A(11,13,17)           119.5974         calculate D2E/DX2 analytically  !
 ! A27   A(15,13,17)           120.1562         calculate D2E/DX2 analytically  !
 ! A28   A(8,15,13)            120.7288         calculate D2E/DX2 analytically  !
 ! A29   A(8,15,16)            118.7682         calculate D2E/DX2 analytically  !
 ! A30   A(13,15,16)           120.5023         calculate D2E/DX2 analytically  !
 ! A31   A(1,18,19)            106.9003         calculate D2E/DX2 analytically  !
 ! A32   A(1,18,20)            116.1004         calculate D2E/DX2 analytically  !
 ! A33   A(1,18,21)            116.2228         calculate D2E/DX2 analytically  !
 ! A34   A(19,18,20)           102.4105         calculate D2E/DX2 analytically  !
 ! A35   A(19,18,21)            98.7761         calculate D2E/DX2 analytically  !
 ! A36   A(20,18,21)           113.4762         calculate D2E/DX2 analytically  !
 ! A37   A(19,22,23)           103.5356         calculate D2E/DX2 analytically  !
 ! A38   A(22,23,24)           102.9184         calculate D2E/DX2 analytically  !
 ! A39   L(18,19,22,9,-1)      181.5091         calculate D2E/DX2 analytically  !
 ! A40   L(18,19,22,9,-2)      179.0609         calculate D2E/DX2 analytically  !
 ! D1    D(3,1,2,6)             -1.033          calculate D2E/DX2 analytically  !
 ! D2    D(3,1,2,7)            179.326          calculate D2E/DX2 analytically  !
 ! D3    D(18,1,2,6)          -177.5166         calculate D2E/DX2 analytically  !
 ! D4    D(18,1,2,7)             2.8424         calculate D2E/DX2 analytically  !
 ! D5    D(2,1,3,4)              0.8616         calculate D2E/DX2 analytically  !
 ! D6    D(2,1,3,5)           -179.036          calculate D2E/DX2 analytically  !
 ! D7    D(18,1,3,4)           177.3967         calculate D2E/DX2 analytically  !
 ! D8    D(18,1,3,5)            -2.5009         calculate D2E/DX2 analytically  !
 ! D9    D(2,1,18,19)           94.8657         calculate D2E/DX2 analytically  !
 ! D10   D(2,1,18,20)          -18.6479         calculate D2E/DX2 analytically  !
 ! D11   D(2,1,18,21)         -156.0228         calculate D2E/DX2 analytically  !
 ! D12   D(3,1,18,19)          -81.5696         calculate D2E/DX2 analytically  !
 ! D13   D(3,1,18,20)          164.9168         calculate D2E/DX2 analytically  !
 ! D14   D(3,1,18,21)           27.5418         calculate D2E/DX2 analytically  !
 ! D15   D(1,2,6,8)              0.629          calculate D2E/DX2 analytically  !
 ! D16   D(1,2,6,10)          -179.3887         calculate D2E/DX2 analytically  !
 ! D17   D(7,2,6,8)           -179.7271         calculate D2E/DX2 analytically  !
 ! D18   D(7,2,6,10)             0.2552         calculate D2E/DX2 analytically  !
 ! D19   D(1,3,4,8)             -0.2817         calculate D2E/DX2 analytically  !
 ! D20   D(1,3,4,9)            179.9198         calculate D2E/DX2 analytically  !
 ! D21   D(5,3,4,8)            179.6145         calculate D2E/DX2 analytically  !
 ! D22   D(5,3,4,9)             -0.1841         calculate D2E/DX2 analytically  !
 ! D23   D(3,4,8,6)             -0.1359         calculate D2E/DX2 analytically  !
 ! D24   D(3,4,8,15)          -179.9906         calculate D2E/DX2 analytically  !
 ! D25   D(9,4,8,6)            179.6663         calculate D2E/DX2 analytically  !
 ! D26   D(9,4,8,15)            -0.1884         calculate D2E/DX2 analytically  !
 ! D27   D(2,6,8,4)             -0.0269         calculate D2E/DX2 analytically  !
 ! D28   D(2,6,8,15)           179.8324         calculate D2E/DX2 analytically  !
 ! D29   D(10,6,8,4)           179.9903         calculate D2E/DX2 analytically  !
 ! D30   D(10,6,8,15)           -0.1504         calculate D2E/DX2 analytically  !
 ! D31   D(2,6,10,11)         -179.8604         calculate D2E/DX2 analytically  !
 ! D32   D(2,6,10,12)            0.1824         calculate D2E/DX2 analytically  !
 ! D33   D(8,6,10,11)            0.1219         calculate D2E/DX2 analytically  !
 ! D34   D(8,6,10,12)         -179.8353         calculate D2E/DX2 analytically  !
 ! D35   D(4,8,15,13)          179.8854         calculate D2E/DX2 analytically  !
 ! D36   D(4,8,15,16)            0.2069         calculate D2E/DX2 analytically  !
 ! D37   D(6,8,15,13)            0.0312         calculate D2E/DX2 analytically  !
 ! D38   D(6,8,15,16)         -179.6473         calculate D2E/DX2 analytically  !
 ! D39   D(6,10,11,13)           0.027          calculate D2E/DX2 analytically  !
 ! D40   D(6,10,11,14)         179.9699         calculate D2E/DX2 analytically  !
 ! D41   D(12,10,11,13)        179.9834         calculate D2E/DX2 analytically  !
 ! D42   D(12,10,11,14)         -0.0737         calculate D2E/DX2 analytically  !
 ! D43   D(10,11,13,15)         -0.1498         calculate D2E/DX2 analytically  !
 ! D44   D(10,11,13,17)        179.537          calculate D2E/DX2 analytically  !
 ! D45   D(14,11,13,15)        179.9071         calculate D2E/DX2 analytically  !
 ! D46   D(14,11,13,17)         -0.4061         calculate D2E/DX2 analytically  !
 ! D47   D(11,13,15,8)           0.1191         calculate D2E/DX2 analytically  !
 ! D48   D(11,13,15,16)        179.792          calculate D2E/DX2 analytically  !
 ! D49   D(17,13,15,8)        -179.5659         calculate D2E/DX2 analytically  !
 ! D50   D(17,13,15,16)          0.107          calculate D2E/DX2 analytically  !
 ! D51   D(1,18,22,23)         -54.3502         calculate D2E/DX2 analytically  !
 ! D52   D(20,18,22,23)         68.3282         calculate D2E/DX2 analytically  !
 ! D53   D(21,18,22,23)       -175.3935         calculate D2E/DX2 analytically  !
 ! D54   D(19,22,23,24)       -102.6387         calculate D2E/DX2 analytically  !
 --------------------------------------------------------------------------------
 Trust Radius=3.00D-01 FncErr=1.00D-05 GrdErr=1.00D-04 EigMax=2.50D+02 EigMin=1.00D-04
 Number of steps in this run=    144 maximum allowed number of steps=    144.
 Search for a saddle point of order  1.
 GradGradGradGradGradGradGradGradGradGradGradGradGradGradGradGradGradGrad

                          Input orientation:                          
 ---------------------------------------------------------------------
 Center     Atomic      Atomic             Coordinates (Angstroms)
 Number     Number       Type             X           Y           Z
 ---------------------------------------------------------------------
      1          6           0        1.266360    0.424280    0.703880
      2          6           0        0.363800   -0.617380    0.767050
      3          6           0        0.823530    1.680400    0.193750
      4          6           0       -0.463440    1.860630   -0.207190
      5          1           0        1.533520    2.494670    0.128330
      6          6           0       -0.979000   -0.458160    0.361230
      7          1           0        0.684890   -1.582490    1.141560
      8          6           0       -1.405700    0.800460   -0.135660
      9          1           0       -0.789530    2.818830   -0.591780
     10          6           0       -1.916120   -1.518670    0.434460
     11          6           0       -3.209090   -1.336950    0.031970
     12          1           0       -1.587140   -2.476760    0.816760
     13          6           0       -3.631180   -0.084270   -0.465340
     14          1           0       -3.914840   -2.153630    0.092100
     15          6           0       -2.748900    0.958330   -0.545070
     16          1           0       -3.067170    1.919490   -0.928790
     17          1           0       -4.654840    0.044770   -0.787650
     18          6           0        2.658150    0.241610    1.071920
     19          1           0        3.213520    0.027740    0.136450
     20          1           0        2.881050   -0.629930    1.680100
     21          1           0        3.193800    1.134420    1.382270
     22          8           0        3.730120   -0.163170   -0.675570
     23          8           0        3.061110   -1.249740   -1.240360
     24          1           0        3.626420   -1.995460   -1.007920
 ---------------------------------------------------------------------
                    Distance matrix (angstroms):
                    1          2          3          4          5
     1  C    0.000000
     2  C    1.379732   0.000000
     3  C    1.426243   2.412430   0.000000
     4  C    2.425976   2.788190   1.359973   0.000000
     5  H    2.165444   3.385419   1.082313   2.121893   0.000000
     6  C    2.436750   1.411791   2.801893   2.442476   3.884096
     7  H    2.134666   1.083879   3.400591   3.872062   4.286029
     8  C    2.825994   2.440550   2.419147   1.420187   3.402801
     9  H    3.411640   3.870934   2.124863   1.082770   2.453609
    10  C    3.738425   2.474060   4.218729   3.733854   5.301003
    11  C    4.856238   3.718019   5.039107   4.221411   6.097782
    12  H    4.070778   2.695539   4.845766   4.596099   5.909955
    13  C    5.060790   4.214600   4.836621   3.726104   5.803232
    14  H    5.819341   4.595909   6.096086   5.302454   7.161887
    15  C    4.238797   3.727388   3.718803   2.480249   4.599231
    16  H    4.866287   4.591638   4.056452   2.702514   4.755490
    17  H    6.117949   5.295496   5.800946   4.604575   6.718395
    18  C    1.451172   2.468775   2.491411   3.741881   2.689133
    19  H    2.066556   2.989104   2.906307   4.122816   2.984662
    20  H    2.161386   2.677754   3.432237   4.577157   3.739913
    21  H    2.163224   3.384701   2.707186   4.053291   2.485795
    22  O    2.884110   3.690470   3.550033   4.679860   3.540540
    23  O    3.131060   3.421265   3.955901   4.812930   4.269362
    24  H    3.788837   3.961605   4.776207   5.677812   5.082574
                    6          7          8          9         10
     6  C    0.000000
     7  H    2.154429   0.000000
     8  C    1.418836   3.417647   0.000000
     9  H    3.418010   4.954796   2.159057   0.000000
    10  C    1.417123   2.696167   2.442116   4.597421   0.000000
    11  C    2.419501   4.056422   2.801578   4.849107   1.366306
    12  H    2.156870   2.463196   3.417630   5.537458   1.082736
    13  C    2.803047   4.843062   2.417477   4.064351   2.410098
    14  H    3.400913   4.752377   3.882564   5.912750   2.124916
    15  C    2.441387   4.592538   1.413055   2.702364   2.790794
    16  H    3.417283   5.534272   2.154476   2.471848   3.873540
    17  H    3.883898   5.906144   3.398981   4.761764   3.382083
    18  C    3.771421   2.688112   4.276148   4.614809   4.942559
    19  H    4.226565   3.161812   4.691304   4.934056   5.365948
    20  H    4.082758   2.453674   4.870239   5.525264   5.035307
    21  H    4.581604   3.705964   4.855002   4.754054   5.835110
    22  O    4.830920   3.819667   5.253259   5.415402   5.911816
    23  O    4.417486   3.380930   5.037467   5.639268   5.258342
    24  H    5.044577   3.666525   5.822391   6.546081   5.746959
                   11         12         13         14         15
    11  C    0.000000
    12  H    2.132084   0.000000
    13  C    1.412333   3.397924   0.000000
    14  H    1.081048   2.459214   2.161817   0.000000
    15  C    2.411029   3.873514   1.368134   3.383740   0.000000
    16  H    3.398176   4.956253   2.132592   4.283815   1.082758
    17  H    2.161277   4.282876   1.080932   2.480831   2.127450
    18  C    6.164240   5.047487   6.482672   7.064094   5.688984
    19  H    6.566827   5.457259   6.872017   7.454788   6.072966
    20  H    6.348702   4.911299   6.878212   7.143355   6.258617
    21  H    6.994854   6.018123   7.174902   7.937794   6.249906
    22  O    7.073260   5.987738   7.364724   7.937044   6.576663
    23  O    6.398581   5.229106   6.837084   7.159354   6.254216
    24  H    6.945445   5.544575   7.524613   7.622707   7.041577
                   16         17         18         19         20
    16  H    0.000000
    17  H    2.460730   0.000000
    18  C    6.292647   7.548283   0.000000
    19  H    6.645338   7.922458   1.108729   0.000000
    20  H    6.977619   7.958307   1.085886   1.710533   0.000000
    21  H    6.719902   8.215658   1.086438   1.666492   1.816438
    22  O    7.113701   8.388287   2.089662   0.981172   2.547149
    23  O    6.906295   7.836874   2.780852   1.884354   2.990932
    24  H    7.754821   8.531725   3.204335   2.360807   3.105753
                   21         22         23         24
    21  H    0.000000
    22  O    2.491201   0.000000
    23  O    3.546831   1.395420   0.000000
    24  H    3.961858   1.865073   0.964211   0.000000
 Stoichiometry    C11H11O2(2)
 Framework group  C1[X(C11H11O2)]
 Deg. of freedom    66
 Full point group                 C1      NOp   1
 Largest Abelian subgroup         C1      NOp   1
 Largest concise Abelian subgroup C1      NOp   1
                         Standard orientation:                         
 ---------------------------------------------------------------------
 Center     Atomic      Atomic             Coordinates (Angstroms)
 Number     Number       Type             X           Y           Z
 ---------------------------------------------------------------------
      1          6           0        1.266361    0.424278    0.703880
      2          6           0        0.363799   -0.617381    0.767050
      3          6           0        0.823532    1.680398    0.193750
      4          6           0       -0.463437    1.860630   -0.207190
      5          1           0        1.533523    2.494667    0.128330
      6          6           0       -0.979000   -0.458159    0.361230
      7          1           0        0.684888   -1.582491    1.141560
      8          6           0       -1.405699    0.800461   -0.135660
      9          1           0       -0.789526    2.818830   -0.591780
     10          6           0       -1.916122   -1.518668    0.434460
     11          6           0       -3.209092   -1.336946    0.031970
     12          1           0       -1.587143   -2.476758    0.816760
     13          6           0       -3.631180   -0.084266   -0.465340
     14          1           0       -3.914843   -2.153625    0.092100
     15          6           0       -2.748899    0.958333   -0.545070
     16          1           0       -3.067167    1.919493   -0.928790
     17          1           0       -4.654840    0.044776   -0.787650
     18          6           0        2.658151    0.241606    1.071920
     19          1           0        3.213520    0.027735    0.136450
     20          1           0        2.881049   -0.629934    1.680100
     21          1           0        3.193802    1.134415    1.382270
     22          8           0        3.730120   -0.163175   -0.675570
     23          8           0        3.061109   -1.249745   -1.240360
     24          1           0        3.626418   -1.995465   -1.007920
 ---------------------------------------------------------------------
 Rotational constants (GHZ):           1.7121075           0.4532618           0.4037541
 Standard basis: 6-31+G(d,p) (6D, 7F)
 There are   302 symmetry adapted cartesian basis functions of A   symmetry.
 There are   302 symmetry adapted basis functions of A   symmetry.
   302 basis functions,   493 primitive gaussians,   302 cartesian basis functions
    47 alpha electrons       46 beta electrons
       nuclear repulsion energy       736.1398813256 Hartrees.
 NAtoms=   24 NActive=   24 NUniq=   24 SFac= 1.00D+00 NAtFMM=   60 NAOKFM=F Big=F
 Integral buffers will be    131072 words long.
 Raffenetti 2 integral format.
 Two-electron integral symmetry is turned on.
 One-electron integrals computed using PRISM.
 NBasis=   302 RedAO= T EigKep=  1.68D-06  NBF=   302
 NBsUse=   300 1.00D-06 EigRej=  9.54D-07 NBFU=   300
 ExpMin= 4.38D-02 ExpMax= 5.48D+03 ExpMxC= 8.25D+02 IAcc=2 IRadAn=         4 AccDes= 0.00D+00
 Harris functional with IExCor= 1009 and IRadAn=       4 diagonalized for initial guess.
 HarFok:  IExCor= 1009 AccDes= 0.00D+00 IRadAn=         4 IDoV= 1 UseB2=F ITyADJ=14
 ICtDFT=  3500011 ScaDFX=  1.000000  1.000000  1.000000  1.000000
 FoFCou: FMM=F IPFlag=           0 FMFlag=      100000 FMFlg1=           0
         NFxFlg=           0 DoJE=T BraDBF=F KetDBF=T FulRan=T
         wScrn=  0.000000 ICntrl=       500 IOpCl=  0 I1Cent=   200000004 NGrid=           0
         NMat0=    1 NMatS0=      1 NMatT0=    0 NMatD0=    1 NMtDS0=    0 NMtDT0=    0
 Petite list used in FoFCou.
 Initial guess <Sx>= 0.0000 <Sy>= 0.0000 <Sz>= 0.5000 <S**2>= 0.7500 S= 0.5000
 Requested convergence on RMS density matrix=1.00D-08 within 128 cycles.
 Requested convergence on MAX density matrix=1.00D-06.
 Requested convergence on             energy=1.00D-06.
 No special actions if energy rises.
 SCF Done:  E(UM062X) =  -575.810324135     A.U. after   20 cycles
            NFock= 20  Conv=0.68D-08     -V/T= 2.0072
 <Sx>= 0.0000 <Sy>= 0.0000 <Sz>= 0.5000 <S**2>= 0.7671 S= 0.5085
 <L.S>= 0.000000000000E+00
 Annihilation of the first spin contaminant:
 S**2 before annihilation     0.7671,   after     0.7502
 DoSCS=F DFT=T ScalE2(SS,OS)=  1.000000  1.000000
 Range of M.O.s used for correlation:     1   300
 NBasis=   302 NAE=    47 NBE=    46 NFC=     0 NFV=     0
 NROrb=    300 NOA=    47 NOB=    46 NVA=   253 NVB=   254

 **** Warning!!: The largest alpha MO coefficient is  0.18822587D+03


 **** Warning!!: The largest beta MO coefficient is  0.19051182D+03

 Symmetrizing basis deriv contribution to polar:
 IMax=3 JMax=2 DiffMx= 0.00D+00
 G2DrvN: will do    25 centers at a time, making    1 passes.
 Calling FoFCou, ICntrl=  3107 FMM=F I1Cent=   0 AccDes= 0.00D+00.
 End of G2Drv F.D. properties file   721 does not exist.
 End of G2Drv F.D. properties file   722 does not exist.
 End of G2Drv F.D. properties file   788 does not exist.
          IDoAtm=111111111111111111111111
          Differentiating once with respect to nuclear coordinates.
 Keep R1 and R2 ints in memory in canonical form, NReq=2115998067.
          There are    75 degrees of freedom in the 1st order CPHF.  IDoFFX=6 NUNeed=     0.
     69 vectors produced by pass  0 Test12= 3.14D-14 1.33D-09 XBig12= 3.50D-01 1.40D-01.
 AX will form    69 AO Fock derivatives at one time.
     69 vectors produced by pass  1 Test12= 3.14D-14 1.33D-09 XBig12= 4.85D-02 5.08D-02.
     69 vectors produced by pass  2 Test12= 3.14D-14 1.33D-09 XBig12= 3.69D-03 1.21D-02.
     69 vectors produced by pass  3 Test12= 3.14D-14 1.33D-09 XBig12= 1.08D-04 2.20D-03.
     69 vectors produced by pass  4 Test12= 3.14D-14 1.33D-09 XBig12= 1.78D-06 1.84D-04.
     69 vectors produced by pass  5 Test12= 3.14D-14 1.33D-09 XBig12= 1.56D-08 8.02D-06.
     69 vectors produced by pass  6 Test12= 3.14D-14 1.33D-09 XBig12= 1.17D-10 8.90D-07.
     40 vectors produced by pass  7 Test12= 3.14D-14 1.33D-09 XBig12= 6.83D-13 6.57D-08.
      5 vectors produced by pass  8 Test12= 3.14D-14 1.33D-09 XBig12= 4.84D-15 4.74D-09.
      1 vectors produced by pass  9 Test12= 3.14D-14 1.33D-09 XBig12= 3.26D-16 1.67D-09.
 InvSVY:  IOpt=1 It=  1 EMax= 1.22D-15
 Solved reduced A of dimension   529 with    75 vectors.
 End of Minotr F.D. properties file   721 does not exist.
 End of Minotr F.D. properties file   722 does not exist.
 End of Minotr F.D. properties file   788 does not exist.

 **********************************************************************

            Population analysis using the SCF density.

 **********************************************************************

 Orbital symmetries:
 Alpha Orbitals:
       Occupied  (A) (A) (A) (A) (A) (A) (A) (A) (A) (A) (A) (A)
                 (A) (A) (A) (A) (A) (A) (A) (A) (A) (A) (A) (A)
                 (A) (A) (A) (A) (A) (A) (A) (A) (A) (A) (A) (A)
                 (A) (A) (A) (A) (A) (A) (A) (A) (A) (A) (A)
       Virtual   (A) (A) (A) (A) (A) (A) (A) (A) (A) (A) (A) (A)
                 (A) (A) (A) (A) (A) (A) (A) (A) (A) (A) (A) (A)
                 (A) (A) (A) (A) (A) (A) (A) (A) (A) (A) (A) (A)
                 (A) (A) (A) (A) (A) (A) (A) (A) (A) (A) (A) (A)
                 (A) (A) (A) (A) (A) (A) (A) (A) (A) (A) (A) (A)
                 (A) (A) (A) (A) (A) (A) (A) (A) (A) (A) (A) (A)
                 (A) (A) (A) (A) (A) (A) (A) (A) (A) (A) (A) (A)
                 (A) (A) (A) (A) (A) (A) (A) (A) (A) (A) (A) (A)
                 (A) (A) (A) (A) (A) (A) (A) (A) (A) (A) (A) (A)
                 (A) (A) (A) (A) (A) (A) (A) (A) (A) (A) (A) (A)
                 (A) (A) (A) (A) (A) (A) (A) (A) (A) (A) (A) (A)
                 (A) (A) (A) (A) (A) (A) (A) (A) (A) (A) (A) (A)
                 (A) (A) (A) (A) (A) (A) (A) (A) (A) (A) (A) (A)
                 (A) (A) (A) (A) (A) (A) (A) (A) (A) (A) (A) (A)
                 (A) (A) (A) (A) (A) (A) (A) (A) (A) (A) (A) (A)
                 (A) (A) (A) (A) (A) (A) (A) (A) (A) (A) (A) (A)
                 (A) (A) (A) (A) (A) (A) (A) (A) (A) (A) (A) (A)
                 (A) (A) (A) (A) (A) (A) (A) (A) (A) (A) (A) (A)
                 (A) (A) (A) (A) (A) (A) (A) (A) (A) (A) (A) (A)
                 (A) (A) (A) (A) (A) (A) (A) (A) (A) (A) (A) (A)
                 (A) (A) (A) (A) (A) (A) (A) (A) (A) (A) (A) (A)
                 (A)
 Beta  Orbitals:
       Occupied  (A) (A) (A) (A) (A) (A) (A) (A) (A) (A) (A) (A)
                 (A) (A) (A) (A) (A) (A) (A) (A) (A) (A) (A) (A)
                 (A) (A) (A) (A) (A) (A) (A) (A) (A) (A) (A) (A)
                 (A) (A) (A) (A) (A) (A) (A) (A) (A) (A)
       Virtual   (A) (A) (A) (A) (A) (A) (A) (A) (A) (A) (A) (A)
                 (A) (A) (A) (A) (A) (A) (A) (A) (A) (A) (A) (A)
                 (A) (A) (A) (A) (A) (A) (A) (A) (A) (A) (A) (A)
                 (A) (A) (A) (A) (A) (A) (A) (A) (A) (A) (A) (A)
                 (A) (A) (A) (A) (A) (A) (A) (A) (A) (A) (A) (A)
                 (A) (A) (A) (A) (A) (A) (A) (A) (A) (A) (A) (A)
                 (A) (A) (A) (A) (A) (A) (A) (A) (A) (A) (A) (A)
                 (A) (A) (A) (A) (A) (A) (A) (A) (A) (A) (A) (A)
                 (A) (A) (A) (A) (A) (A) (A) (A) (A) (A) (A) (A)
                 (A) (A) (A) (A) (A) (A) (A) (A) (A) (A) (A) (A)
                 (A) (A) (A) (A) (A) (A) (A) (A) (A) (A) (A) (A)
                 (A) (A) (A) (A) (A) (A) (A) (A) (A) (A) (A) (A)
                 (A) (A) (A) (A) (A) (A) (A) (A) (A) (A) (A) (A)
                 (A) (A) (A) (A) (A) (A) (A) (A) (A) (A) (A) (A)
                 (A) (A) (A) (A) (A) (A) (A) (A) (A) (A) (A) (A)
                 (A) (A) (A) (A) (A) (A) (A) (A) (A) (A) (A) (A)
                 (A) (A) (A) (A) (A) (A) (A) (A) (A) (A) (A) (A)
                 (A) (A) (A) (A) (A) (A) (A) (A) (A) (A) (A) (A)
                 (A) (A) (A) (A) (A) (A) (A) (A) (A) (A) (A) (A)
                 (A) (A) (A) (A) (A) (A) (A) (A) (A) (A) (A) (A)
                 (A) (A) (A) (A) (A) (A) (A) (A) (A) (A) (A) (A)
                 (A) (A)
 The electronic state is 2-A.
 Alpha  occ. eigenvalues --  -19.71203 -19.69891 -10.57049 -10.56653 -10.56575
 Alpha  occ. eigenvalues --  -10.56215 -10.55970 -10.55963 -10.55931 -10.55875
 Alpha  occ. eigenvalues --  -10.55844 -10.55799 -10.55655  -1.28661  -1.03553
 Alpha  occ. eigenvalues --   -0.99171  -0.94085  -0.88623  -0.86830  -0.82939
 Alpha  occ. eigenvalues --   -0.79531  -0.71473  -0.69645  -0.68769  -0.64015
 Alpha  occ. eigenvalues --   -0.59964  -0.59733  -0.58874  -0.56659  -0.53428
 Alpha  occ. eigenvalues --   -0.52409  -0.51751  -0.49839  -0.48876  -0.47641
 Alpha  occ. eigenvalues --   -0.47138  -0.46576  -0.43413  -0.42375  -0.40308
 Alpha  occ. eigenvalues --   -0.39865  -0.39218  -0.37819  -0.35512  -0.32356
 Alpha  occ. eigenvalues --   -0.28404  -0.24556
 Alpha virt. eigenvalues --   -0.01557   0.01083   0.01635   0.01993   0.02400
 Alpha virt. eigenvalues --    0.03240   0.03568   0.03885   0.05384   0.05617
 Alpha virt. eigenvalues --    0.06271   0.07077   0.07607   0.07909   0.08477
 Alpha virt. eigenvalues --    0.09214   0.09353   0.10658   0.11608   0.12419
 Alpha virt. eigenvalues --    0.12966   0.13376   0.14120   0.14387   0.15006
 Alpha virt. eigenvalues --    0.15205   0.15723   0.16566   0.17506   0.17795
 Alpha virt. eigenvalues --    0.18265   0.18834   0.19692   0.20491   0.20641
 Alpha virt. eigenvalues --    0.20999   0.21402   0.21552   0.21893   0.22182
 Alpha virt. eigenvalues --    0.22867   0.23000   0.23423   0.24110   0.25201
 Alpha virt. eigenvalues --    0.26261   0.26537   0.26815   0.27413   0.27443
 Alpha virt. eigenvalues --    0.28717   0.29009   0.29523   0.29754   0.30299
 Alpha virt. eigenvalues --    0.30946   0.31818   0.32303   0.32986   0.33122
 Alpha virt. eigenvalues --    0.34066   0.35282   0.35518   0.35996   0.37523
 Alpha virt. eigenvalues --    0.37809   0.38542   0.39719   0.40273   0.41191
 Alpha virt. eigenvalues --    0.41972   0.43760   0.47672   0.49693   0.57653
 Alpha virt. eigenvalues --    0.58795   0.60866   0.63371   0.69143   0.70421
 Alpha virt. eigenvalues --    0.71109   0.71660   0.73801   0.75039   0.76529
 Alpha virt. eigenvalues --    0.77340   0.77604   0.77824   0.79090   0.80013
 Alpha virt. eigenvalues --    0.80593   0.80967   0.82405   0.82817   0.83334
 Alpha virt. eigenvalues --    0.83816   0.84670   0.85028   0.87836   0.89460
 Alpha virt. eigenvalues --    0.92279   0.93728   0.95203   0.95979   0.97079
 Alpha virt. eigenvalues --    0.98359   1.00107   1.01671   1.03643   1.05577
 Alpha virt. eigenvalues --    1.06228   1.07057   1.09221   1.11901   1.12811
 Alpha virt. eigenvalues --    1.14738   1.16144   1.16641   1.17307   1.18722
 Alpha virt. eigenvalues --    1.20609   1.21306   1.22950   1.23937   1.26069
 Alpha virt. eigenvalues --    1.26310   1.28186   1.28940   1.29199   1.30753
 Alpha virt. eigenvalues --    1.32247   1.33530   1.35320   1.36317   1.39322
 Alpha virt. eigenvalues --    1.40249   1.40844   1.41836   1.44235   1.46157
 Alpha virt. eigenvalues --    1.46712   1.48908   1.49367   1.50738   1.53346
 Alpha virt. eigenvalues --    1.54700   1.56788   1.59575   1.60033   1.66703
 Alpha virt. eigenvalues --    1.69909   1.73739   1.76918   1.80820   1.84388
 Alpha virt. eigenvalues --    1.85948   1.86445   1.87375   1.91745   1.93190
 Alpha virt. eigenvalues --    1.94362   1.94761   1.95860   1.98164   1.99057
 Alpha virt. eigenvalues --    1.99564   2.01044   2.04632   2.05386   2.07025
 Alpha virt. eigenvalues --    2.08052   2.08860   2.11712   2.13247   2.15143
 Alpha virt. eigenvalues --    2.17994   2.19617   2.20180   2.21911   2.24132
 Alpha virt. eigenvalues --    2.26537   2.27706   2.28623   2.32890   2.33291
 Alpha virt. eigenvalues --    2.35743   2.36616   2.38913   2.41231   2.42311
 Alpha virt. eigenvalues --    2.43391   2.44335   2.46098   2.48373   2.50211
 Alpha virt. eigenvalues --    2.51030   2.51180   2.53033   2.55943   2.56775
 Alpha virt. eigenvalues --    2.60413   2.60494   2.62368   2.62647   2.63725
 Alpha virt. eigenvalues --    2.64816   2.66773   2.67713   2.73045   2.73682
 Alpha virt. eigenvalues --    2.74649   2.77213   2.80314   2.81194   2.84745
 Alpha virt. eigenvalues --    2.87313   2.90044   2.90818   2.98895   3.03511
 Alpha virt. eigenvalues --    3.08360   3.09411   3.11309   3.15425   3.16390
 Alpha virt. eigenvalues --    3.18851   3.20460   3.25047   3.26762   3.28974
 Alpha virt. eigenvalues --    3.35500   3.39375   3.41911   3.46608   3.48782
 Alpha virt. eigenvalues --    3.50412   3.54338   3.76077   3.89669   4.07960
 Alpha virt. eigenvalues --    4.21090   4.30582   4.34566   4.36292   4.38771
 Alpha virt. eigenvalues --    4.42158   4.46782   4.49092   4.52659   4.56944
 Alpha virt. eigenvalues --    4.68778   4.75253   4.96075
  Beta  occ. eigenvalues --  -19.71115 -19.68975 -10.57139 -10.56648 -10.56566
  Beta  occ. eigenvalues --  -10.56083 -10.55983 -10.55941 -10.55920 -10.55852
  Beta  occ. eigenvalues --  -10.55848 -10.55799 -10.55025  -1.26980  -1.01512
  Beta  occ. eigenvalues --   -0.99010  -0.93814  -0.88342  -0.86265  -0.82747
  Beta  occ. eigenvalues --   -0.78263  -0.71321  -0.69075  -0.68674  -0.62192
  Beta  occ. eigenvalues --   -0.59597  -0.58725  -0.57771  -0.56218  -0.52718
  Beta  occ. eigenvalues --   -0.52180  -0.51015  -0.49522  -0.48737  -0.47215
  Beta  occ. eigenvalues --   -0.46808  -0.46060  -0.43200  -0.41066  -0.40032
  Beta  occ. eigenvalues --   -0.39210  -0.38417  -0.36452  -0.34869  -0.30234
  Beta  occ. eigenvalues --   -0.27309
  Beta virt. eigenvalues --   -0.07123  -0.00934   0.01427   0.02008   0.02172
  Beta virt. eigenvalues --    0.02713   0.03343   0.03684   0.04050   0.05562
  Beta virt. eigenvalues --    0.05763   0.06537   0.07203   0.07671   0.07960
  Beta virt. eigenvalues --    0.08578   0.09357   0.09555   0.10784   0.11601
  Beta virt. eigenvalues --    0.12590   0.13033   0.13479   0.14148   0.14434
  Beta virt. eigenvalues --    0.15096   0.15442   0.15538   0.16631   0.17520
  Beta virt. eigenvalues --    0.17981   0.18336   0.18888   0.19745   0.20549
  Beta virt. eigenvalues --    0.20708   0.20995   0.21440   0.21522   0.21956
  Beta virt. eigenvalues --    0.22208   0.22935   0.23048   0.23453   0.24223
  Beta virt. eigenvalues --    0.25192   0.26309   0.26649   0.26978   0.27441
  Beta virt. eigenvalues --    0.27491   0.28802   0.29115   0.29632   0.29843
  Beta virt. eigenvalues --    0.30369   0.31026   0.31797   0.32339   0.33147
  Beta virt. eigenvalues --    0.33223   0.34225   0.35424   0.35662   0.36194
  Beta virt. eigenvalues --    0.37475   0.37931   0.38962   0.40091   0.40400
  Beta virt. eigenvalues --    0.41312   0.42071   0.43958   0.47904   0.49870
  Beta virt. eigenvalues --    0.57920   0.58971   0.61969   0.63767   0.69358
  Beta virt. eigenvalues --    0.70571   0.71245   0.71797   0.74012   0.75345
  Beta virt. eigenvalues --    0.76829   0.77437   0.77765   0.78064   0.79282
  Beta virt. eigenvalues --    0.80491   0.80885   0.81253   0.82878   0.83229
  Beta virt. eigenvalues --    0.83736   0.84374   0.84779   0.86008   0.88406
  Beta virt. eigenvalues --    0.90096   0.92463   0.93863   0.95509   0.96401
  Beta virt. eigenvalues --    0.97383   0.98411   1.00350   1.01866   1.04053
  Beta virt. eigenvalues --    1.05693   1.06522   1.07198   1.09659   1.12181
  Beta virt. eigenvalues --    1.13010   1.15345   1.16660   1.16943   1.17500
  Beta virt. eigenvalues --    1.19105   1.20917   1.21688   1.23430   1.24108
  Beta virt. eigenvalues --    1.26390   1.27096   1.28706   1.29316   1.29403
  Beta virt. eigenvalues --    1.31083   1.32597   1.34267   1.35857   1.36779
  Beta virt. eigenvalues --    1.39478   1.40553   1.41074   1.41989   1.44580
  Beta virt. eigenvalues --    1.46325   1.46960   1.49024   1.49601   1.50992
  Beta virt. eigenvalues --    1.53515   1.55048   1.57194   1.60093   1.60224
  Beta virt. eigenvalues --    1.67081   1.70252   1.74221   1.77917   1.81330
  Beta virt. eigenvalues --    1.84620   1.86103   1.86709   1.88491   1.92135
  Beta virt. eigenvalues --    1.93339   1.94826   1.94953   1.96182   1.98411
  Beta virt. eigenvalues --    1.99226   1.99784   2.01305   2.04955   2.05467
  Beta virt. eigenvalues --    2.07186   2.08260   2.09123   2.12189   2.13778
  Beta virt. eigenvalues --    2.15718   2.18331   2.20075   2.20630   2.22790
  Beta virt. eigenvalues --    2.24459   2.26774   2.28351   2.29068   2.33121
  Beta virt. eigenvalues --    2.34090   2.36706   2.37077   2.39484   2.41319
  Beta virt. eigenvalues --    2.42536   2.43648   2.44420   2.46653   2.48654
  Beta virt. eigenvalues --    2.50493   2.51248   2.51419   2.53469   2.56319
  Beta virt. eigenvalues --    2.57092   2.60559   2.60779   2.62561   2.62906
  Beta virt. eigenvalues --    2.63968   2.65017   2.66859   2.67838   2.73179
  Beta virt. eigenvalues --    2.73941   2.74978   2.77387   2.80552   2.81853
  Beta virt. eigenvalues --    2.85102   2.87810   2.90139   2.91312   2.99273
  Beta virt. eigenvalues --    3.03810   3.08852   3.10928   3.11687   3.16017
  Beta virt. eigenvalues --    3.17057   3.19557   3.21085   3.25421   3.26824
  Beta virt. eigenvalues --    3.29076   3.35675   3.39761   3.43822   3.46690
  Beta virt. eigenvalues --    3.49364   3.50496   3.56331   3.76428   3.89894
  Beta virt. eigenvalues --    4.11620   4.21167   4.30755   4.34706   4.36484
  Beta virt. eigenvalues --    4.38833   4.42521   4.47240   4.49500   4.52899
  Beta virt. eigenvalues --    4.57206   4.69447   4.77362   4.96425
          Condensed to atoms (all electrons):
               1          2          3          4          5          6
     1  C    9.883664   0.861938  -1.135600  -0.920457   0.100113  -0.201104
     2  C    0.861938   8.700461  -3.356544   1.824407   0.075904  -1.151045
     3  C   -1.135600  -3.356544  11.226758  -1.602706   0.067153   0.776388
     4  C   -0.920457   1.824407  -1.602706  11.086317   0.133899  -2.768430
     5  H    0.100113   0.075904   0.067153   0.133899   0.536279  -0.025516
     6  C   -0.201104  -1.151045   0.776388  -2.768430  -0.025516  11.461832
     7  H   -0.008000   0.203898   0.062955  -0.056733  -0.000158   0.063326
     8  C    0.632381  -1.205353   0.053085  -3.623238  -0.007391   1.615430
     9  H    0.014500  -0.028832   0.044109   0.161598  -0.003986   0.037701
    10  C   -0.814378   0.533470  -0.094203   1.533611   0.002473  -2.959999
    11  C   -0.273651  -0.436886   0.079265  -0.041276  -0.000970   0.026608
    12  H    0.020871   0.014497   0.007454  -0.010845   0.000000   0.033801
    13  C    0.019289   0.041176  -0.315450  -0.345368   0.003006   0.622436
    14  H    0.001086   0.001454  -0.000735   0.001858  -0.000000   0.023257
    15  C   -0.868934   0.266471   0.563338   1.342209   0.013170  -1.881662
    16  H    0.007325  -0.004546   0.017627  -0.035606  -0.000008   0.028218
    17  H    0.001148   0.000083   0.000661  -0.005204  -0.000000   0.012153
    18  C   -1.093145  -0.422802  -0.125225  -0.643979  -0.048396   0.329112
    19  H   -0.236394   0.022663  -0.007488   0.029119  -0.000856  -0.019481
    20  H   -0.127747   0.090073  -0.057643  -0.012774   0.000064   0.043631
    21  H   -0.066888  -0.012914   0.048217   0.033658   0.001789  -0.010669
    22  O    0.450026   0.019914  -0.087414  -0.038099   0.000662   0.005797
    23  O    0.002258  -0.298434   0.213588  -0.058133  -0.000093   0.023515
    24  H   -0.044697   0.052645  -0.031372  -0.000143  -0.000000   0.010692
               7          8          9         10         11         12
     1  C   -0.008000   0.632381   0.014500  -0.814378  -0.273651   0.020871
     2  C    0.203898  -1.205353  -0.028832   0.533470  -0.436886   0.014497
     3  C    0.062955   0.053085   0.044109  -0.094203   0.079265   0.007454
     4  C   -0.056733  -3.623238   0.161598   1.533611  -0.041276  -0.010845
     5  H   -0.000158  -0.007391  -0.003986   0.002473  -0.000970   0.000000
     6  C    0.063326   1.615430   0.037701  -2.959999   0.026608   0.033801
     7  H    0.557126  -0.025243   0.000018   0.046201   0.032251   0.003234
     8  C   -0.025243  14.035657   0.107046  -1.991959   0.107432   0.000440
     9  H    0.000018   0.107046   0.537910  -0.006238   0.003390   0.000001
    10  C    0.046201  -1.991959  -0.006238   8.708134   0.261373   0.244159
    11  C    0.032251   0.107432   0.003390   0.261373   5.974273   0.009163
    12  H    0.003234   0.000440   0.000001   0.244159   0.009163   0.543393
    13  C    0.001343   0.104168   0.006069  -0.848457   0.533903   0.013291
    14  H   -0.000008   0.000391   0.000000   0.011782   0.252931  -0.004280
    15  C   -0.000018  -4.336553  -0.031651   1.978457  -0.308113  -0.029970
    16  H    0.000001   0.090841   0.003032  -0.036989   0.009048   0.000017
    17  H    0.000000   0.037799  -0.000008   0.003861   0.007641  -0.000155
    18  C   -0.024360   0.288661   0.000521  -0.321536  -0.004767   0.002973
    19  H   -0.000353  -0.011516  -0.000008  -0.001766   0.000422  -0.000001
    20  H    0.002712  -0.004892   0.000002   0.003652   0.000495   0.000000
    21  H    0.000054   0.004828  -0.000005   0.000377  -0.000005   0.000000
    22  O    0.000566  -0.000622   0.000010   0.008418   0.001106  -0.000001
    23  O    0.000245   0.032141  -0.000008  -0.015472  -0.001935  -0.000003
    24  H   -0.000062  -0.003177  -0.000000   0.002844   0.000227   0.000000
              13         14         15         16         17         18
     1  C    0.019289   0.001086  -0.868934   0.007325   0.001148  -1.093145
     2  C    0.041176   0.001454   0.266471  -0.004546   0.000083  -0.422802
     3  C   -0.315450  -0.000735   0.563338   0.017627   0.000661  -0.125225
     4  C   -0.345368   0.001858   1.342209  -0.035606  -0.005204  -0.643979
     5  H    0.003006  -0.000000   0.013170  -0.000008  -0.000000  -0.048396
     6  C    0.622436   0.023257  -1.881662   0.028218   0.012153   0.329112
     7  H    0.001343  -0.000008  -0.000018   0.000001   0.000000  -0.024360
     8  C    0.104168   0.000391  -4.336553   0.090841   0.037799   0.288661
     9  H    0.006069   0.000000  -0.031651   0.003032  -0.000008   0.000521
    10  C   -0.848457   0.011782   1.978457  -0.036989   0.003861  -0.321536
    11  C    0.533903   0.252931  -0.308113   0.009048   0.007641  -0.004767
    12  H    0.013291  -0.004280  -0.029970   0.000017  -0.000155   0.002973
    13  C    6.021647   0.019122   0.058279   0.006588   0.248290  -0.011631
    14  H    0.019122   0.530974   0.011691  -0.000153  -0.004113   0.000075
    15  C    0.058279   0.011691   9.514187   0.223806   0.016656  -0.294622
    16  H    0.006588  -0.000153   0.223806   0.540951  -0.004258   0.000538
    17  H    0.248290  -0.004113   0.016656  -0.004258   0.530249   0.000052
    18  C   -0.011631   0.000075  -0.294622   0.000538   0.000052   7.939560
    19  H   -0.000155   0.000000  -0.002879   0.000000   0.000000   0.402027
    20  H    0.000030  -0.000000  -0.001829  -0.000000  -0.000000   0.421283
    21  H    0.000087   0.000000   0.001451   0.000000   0.000000   0.354844
    22  O    0.000082  -0.000000  -0.003721  -0.000000  -0.000000  -0.558249
    23  O   -0.000815  -0.000000   0.010980   0.000000  -0.000000   0.149210
    24  H    0.000029   0.000000  -0.000556   0.000000   0.000000   0.011190
              19         20         21         22         23         24
     1  C   -0.236394  -0.127747  -0.066888   0.450026   0.002258  -0.044697
     2  C    0.022663   0.090073  -0.012914   0.019914  -0.298434   0.052645
     3  C   -0.007488  -0.057643   0.048217  -0.087414   0.213588  -0.031372
     4  C    0.029119  -0.012774   0.033658  -0.038099  -0.058133  -0.000143
     5  H   -0.000856   0.000064   0.001789   0.000662  -0.000093  -0.000000
     6  C   -0.019481   0.043631  -0.010669   0.005797   0.023515   0.010692
     7  H   -0.000353   0.002712   0.000054   0.000566   0.000245  -0.000062
     8  C   -0.011516  -0.004892   0.004828  -0.000622   0.032141  -0.003177
     9  H   -0.000008   0.000002  -0.000005   0.000010  -0.000008  -0.000000
    10  C   -0.001766   0.003652   0.000377   0.008418  -0.015472   0.002844
    11  C    0.000422   0.000495  -0.000005   0.001106  -0.001935   0.000227
    12  H   -0.000001   0.000000   0.000000  -0.000001  -0.000003   0.000000
    13  C   -0.000155   0.000030   0.000087   0.000082  -0.000815   0.000029
    14  H    0.000000  -0.000000   0.000000  -0.000000  -0.000000   0.000000
    15  C   -0.002879  -0.001829   0.001451  -0.003721   0.010980  -0.000556
    16  H    0.000000  -0.000000   0.000000  -0.000000   0.000000   0.000000
    17  H    0.000000  -0.000000   0.000000  -0.000000  -0.000000   0.000000
    18  C    0.402027   0.421283   0.354844  -0.558249   0.149210   0.011190
    19  H    0.554476  -0.018584  -0.023217  -0.032197  -0.070303   0.001030
    20  H   -0.018584   0.501485  -0.022107   0.000072  -0.003790   0.000944
    21  H   -0.023217  -0.022107   0.492813   0.003580   0.004093  -0.000100
    22  O   -0.032197   0.000072   0.003580   8.472382   0.114522  -0.038224
    23  O   -0.070303  -0.003790   0.004093   0.114522   7.985387   0.251739
    24  H    0.001030   0.000944  -0.000100  -0.038224   0.251739   0.414453
          Atomic-Atomic Spin Densities.
               1          2          3          4          5          6
     1  C    0.142196   0.091392  -0.134984   0.153920  -0.006777  -0.054268
     2  C    0.091392   0.524698  -0.268519   0.178457  -0.001420  -0.077571
     3  C   -0.134984  -0.268519   0.497493  -0.348132   0.004431   0.066574
     4  C    0.153920   0.178457  -0.348132   0.111055   0.000690  -0.032646
     5  H   -0.006777  -0.001420   0.004431   0.000690  -0.003122  -0.000162
     6  C   -0.054268  -0.077571   0.066574  -0.032646  -0.000162  -0.049741
     7  H   -0.009641   0.006048  -0.003292   0.001777   0.000002   0.004166
     8  C   -0.015152  -0.056879   0.026202  -0.009155   0.000678   0.010383
     9  H   -0.000399   0.000168  -0.000035   0.001908  -0.000015   0.001180
    10  C    0.014522   0.047816  -0.050045   0.018140  -0.000113  -0.002583
    11  C    0.000651   0.015117  -0.018985   0.013954   0.000028  -0.002493
    12  H    0.000248   0.000157   0.000004  -0.000147  -0.000000  -0.000408
    13  C    0.001103   0.016204  -0.020365   0.011229  -0.000032   0.002311
    14  H   -0.000015  -0.000059   0.000006   0.000024   0.000000  -0.000266
    15  C    0.022345  -0.018989   0.047557  -0.056462  -0.000240   0.021631
    16  H    0.000153   0.000052  -0.000309  -0.000769   0.000000   0.001036
    17  H   -0.000022  -0.000029   0.000001   0.000494  -0.000000  -0.001334
    18  C   -0.463353  -0.308078   0.313919  -0.109248   0.003445   0.056293
    19  H   -0.012871  -0.001361  -0.006246  -0.010859  -0.000053   0.010206
    20  H    0.020243   0.000054   0.005576   0.002745  -0.000015  -0.003489
    21  H    0.021118   0.011670  -0.009820   0.005082  -0.000156  -0.000336
    22  O    0.105526   0.065294  -0.035855   0.022479  -0.000106  -0.013141
    23  O   -0.036716  -0.051029   0.025121  -0.010763   0.000047   0.005096
    24  H    0.002672   0.002027  -0.000247   0.000311  -0.000000  -0.000397
               7          8          9         10         11         12
     1  C   -0.009641  -0.015152  -0.000399   0.014522   0.000651   0.000248
     2  C    0.006048  -0.056879   0.000168   0.047816   0.015117   0.000157
     3  C   -0.003292   0.026202  -0.000035  -0.050045  -0.018985   0.000004
     4  C    0.001777  -0.009155   0.001908   0.018140   0.013954  -0.000147
     5  H    0.000002   0.000678  -0.000015  -0.000113   0.000028  -0.000000
     6  C    0.004166   0.010383   0.001180  -0.002583  -0.002493  -0.000408
     7  H   -0.009382  -0.000279  -0.000000   0.000046  -0.000124  -0.000021
     8  C   -0.000279   0.128361  -0.002449  -0.002996   0.002709  -0.001132
     9  H   -0.000000  -0.002449   0.002020   0.000198   0.000142  -0.000000
    10  C    0.000046  -0.002996   0.000198   0.072599   0.001244   0.000572
    11  C   -0.000124   0.002709   0.000142   0.001244  -0.032269   0.000332
    12  H   -0.000021  -0.001132  -0.000000   0.000572   0.000332  -0.002447
    13  C   -0.000085  -0.006806  -0.000153  -0.021601   0.003937   0.000202
    14  H   -0.000000   0.000243  -0.000000   0.000444  -0.000453  -0.000006
    15  C   -0.000423  -0.008462  -0.000448  -0.007489  -0.015935   0.000378
    16  H   -0.000000   0.000818   0.000008  -0.000317  -0.000210  -0.000000
    17  H   -0.000000   0.000748   0.000000   0.000160   0.000502   0.000001
    18  C    0.002324   0.023060  -0.000064  -0.022224  -0.004729  -0.000051
    19  H   -0.000062  -0.001583  -0.000000  -0.000135  -0.000126   0.000000
    20  H   -0.000084   0.000837  -0.000000   0.000651   0.000141  -0.000000
    21  H   -0.000016   0.000152  -0.000000   0.000463   0.000047  -0.000000
    22  O   -0.000102  -0.002455  -0.000001   0.003262   0.000472  -0.000000
    23  O    0.000227   0.004664   0.000001  -0.004785  -0.000882   0.000002
    24  H   -0.000004  -0.000125  -0.000000   0.000107   0.000021  -0.000000
              13         14         15         16         17         18
     1  C    0.001103  -0.000015   0.022345   0.000153  -0.000022  -0.463353
     2  C    0.016204  -0.000059  -0.018989   0.000052  -0.000029  -0.308078
     3  C   -0.020365   0.000006   0.047557  -0.000309   0.000001   0.313919
     4  C    0.011229   0.000024  -0.056462  -0.000769   0.000494  -0.109248
     5  H   -0.000032   0.000000  -0.000240   0.000000  -0.000000   0.003445
     6  C    0.002311  -0.000266   0.021631   0.001036  -0.001334   0.056293
     7  H   -0.000085  -0.000000  -0.000423  -0.000000  -0.000000   0.002324
     8  C   -0.006806   0.000243  -0.008462   0.000818   0.000748   0.023060
     9  H   -0.000153  -0.000000  -0.000448   0.000008   0.000000  -0.000064
    10  C   -0.021601   0.000444  -0.007489  -0.000317   0.000160  -0.022224
    11  C    0.003937  -0.000453  -0.015935  -0.000210   0.000502  -0.004729
    12  H    0.000202  -0.000006   0.000378  -0.000000   0.000001  -0.000051
    13  C    0.103755  -0.000048  -0.014232   0.000501   0.000318  -0.005385
    14  H   -0.000048   0.001190   0.000078  -0.000000  -0.000003  -0.000001
    15  C   -0.014232   0.000078  -0.035281  -0.000971  -0.000761   0.021373
    16  H    0.000501  -0.000000  -0.000971   0.001371  -0.000001   0.000010
    17  H    0.000318  -0.000003  -0.000761  -0.000001  -0.003065   0.000001
    18  C   -0.005385  -0.000001   0.021373   0.000010   0.000001   1.343071
    19  H   -0.000055  -0.000000   0.000183  -0.000000   0.000000   0.127851
    20  H    0.000037  -0.000000  -0.000010   0.000000  -0.000000  -0.040562
    21  H    0.000020  -0.000000  -0.000144  -0.000000  -0.000000  -0.042844
    22  O    0.000232  -0.000000  -0.000926  -0.000000  -0.000000  -0.362749
    23  O   -0.000292   0.000000   0.000772   0.000000   0.000000   0.102262
    24  H    0.000004  -0.000000  -0.000010  -0.000000   0.000000  -0.006449
              19         20         21         22         23         24
     1  C   -0.012871   0.020243   0.021118   0.105526  -0.036716   0.002672
     2  C   -0.001361   0.000054   0.011670   0.065294  -0.051029   0.002027
     3  C   -0.006246   0.005576  -0.009820  -0.035855   0.025121  -0.000247
     4  C   -0.010859   0.002745   0.005082   0.022479  -0.010763   0.000311
     5  H   -0.000053  -0.000015  -0.000156  -0.000106   0.000047  -0.000000
     6  C    0.010206  -0.003489  -0.000336  -0.013141   0.005096  -0.000397
     7  H   -0.000062  -0.000084  -0.000016  -0.000102   0.000227  -0.000004
     8  C   -0.001583   0.000837   0.000152  -0.002455   0.004664  -0.000125
     9  H   -0.000000  -0.000000  -0.000000  -0.000001   0.000001  -0.000000
    10  C   -0.000135   0.000651   0.000463   0.003262  -0.004785   0.000107
    11  C   -0.000126   0.000141   0.000047   0.000472  -0.000882   0.000021
    12  H    0.000000  -0.000000  -0.000000  -0.000000   0.000002  -0.000000
    13  C   -0.000055   0.000037   0.000020   0.000232  -0.000292   0.000004
    14  H   -0.000000  -0.000000  -0.000000  -0.000000   0.000000  -0.000000
    15  C    0.000183  -0.000010  -0.000144  -0.000926   0.000772  -0.000010
    16  H   -0.000000   0.000000  -0.000000  -0.000000   0.000000  -0.000000
    17  H    0.000000  -0.000000  -0.000000  -0.000000   0.000000   0.000000
    18  C    0.127851  -0.040562  -0.042844  -0.362749   0.102262  -0.006449
    19  H   -0.123163   0.006030   0.005141  -0.033132   0.023270  -0.001109
    20  H    0.006030  -0.023446   0.002542   0.007213  -0.003009   0.000085
    21  H    0.005141   0.002542  -0.021505   0.007112  -0.001771   0.000028
    22  O   -0.033132   0.007213   0.007112   0.603297  -0.073815   0.004548
    23  O    0.023270  -0.003009  -0.001771  -0.073815   0.059368  -0.001718
    24  H   -0.001109   0.000085   0.000028   0.004548  -0.001718  -0.000537
 Mulliken charges and spin densities:
               1          2
     1  C   -0.203604  -0.158108
     2  C    0.208300   0.175222
     3  C   -0.346216   0.090049
     4  C    0.016315  -0.055916
     5  H    0.152862  -0.002889
     6  C   -0.095990  -0.059960
     7  H    0.141004  -0.008926
     8  C    0.099644   0.091383
     9  H    0.154830   0.002060
    10  C   -0.247814   0.047936
    11  C   -0.231924  -0.036911
    12  H    0.151959  -0.002317
    13  C   -0.176960   0.070798
    14  H    0.154669   0.001134
    15  C   -0.240189  -0.046463
    16  H    0.153568   0.001372
    17  H    0.155147  -0.002988
    18  C   -0.351335   0.627871
    19  H    0.415460  -0.018074
    20  H    0.184921  -0.024463
    21  H    0.190115  -0.023219
    22  O   -0.318610   0.297153
    23  O   -0.338690   0.036051
    24  H    0.372538  -0.000795
 Sum of Mulliken charges =  -0.00000   1.00000
 Mulliken charges and spin densities with hydrogens summed into heavy atoms:
               1          2
     1  C   -0.203604  -0.158108
     2  C    0.349304   0.166297
     3  C   -0.193354   0.087160
     4  C    0.171145  -0.053856
     6  C   -0.095990  -0.059960
     8  C    0.099644   0.091383
    10  C   -0.095855   0.045619
    11  C   -0.077255  -0.035777
    13  C   -0.021814   0.067810
    15  C   -0.086621  -0.045091
    18  C    0.023701   0.580189
    22  O    0.096850   0.279079
    23  O    0.033848   0.035255
 APT charges:
               1
     1  C   -0.122019
     2  C   -0.248462
     3  C   -0.427961
     4  C   -0.180987
     5  H    0.600560
     6  C   -1.185464
     7  H    0.445818
     8  C   -0.350670
     9  H    0.606246
    10  C   -0.709874
    11  C   -0.376704
    12  H    0.469773
    13  C   -0.373011
    14  H    0.816478
    15  C   -0.703259
    16  H    0.616086
    17  H    0.890319
    18  C   -1.017198
    19  H    0.584752
    20  H    0.480959
    21  H    0.620548
    22  O   -0.527012
    23  O   -0.851982
    24  H    0.943061
 Sum of APT charges =  -0.00000
 APT charges with hydrogens summed into heavy atoms:
               1
     1  C   -0.122019
     2  C    0.197356
     3  C    0.172599
     4  C    0.425259
     6  C   -1.185464
     8  C   -0.350670
    10  C   -0.240101
    11  C    0.439775
    13  C    0.517308
    15  C   -0.087173
    18  C    0.084309
    22  O    0.057741
    23  O    0.091080
 Electronic spatial extent (au):  <R**2>=           2788.6684
 Charge=             -0.0000 electrons
 Dipole moment (field-independent basis, Debye):
    X=             -0.3581    Y=             -1.0511    Z=              1.4916  Tot=              1.8595
 Quadrupole moment (field-independent basis, Debye-Ang):
   XX=            -70.7097   YY=            -65.3826   ZZ=            -82.6389
   XY=             -4.5252   XZ=              7.9055   YZ=             -2.6620
 Traceless Quadrupole moment (field-independent basis, Debye-Ang):
   XX=              2.2007   YY=              7.5278   ZZ=             -9.7285
   XY=             -4.5252   XZ=              7.9055   YZ=             -2.6620
 Octapole moment (field-independent basis, Debye-Ang**2):
  XXX=              5.9413  YYY=            -15.5078  ZZZ=             -6.3660  XYY=             25.3845
  XXY=            -28.4563  XXZ=              4.1838  XZZ=             12.6804  YZZ=             -3.9532
  YYZ=             -6.3496  XYZ=              9.9587
 Hexadecapole moment (field-independent basis, Debye-Ang**3):
 XXXX=          -2612.8342 YYYY=           -612.1070 ZZZZ=           -318.0345 XXXY=            -97.0865
 XXXZ=             68.5586 YYYX=            -56.5258 YYYZ=             -5.2044 ZZZX=            -17.5633
 ZZZY=              2.8147 XXYY=           -454.2748 XXZZ=           -532.9549 YYZZ=           -164.8506
 XXYZ=             15.6725 YYXZ=            -16.4490 ZZXY=            -17.9137
 N-N= 7.361398813256D+02 E-N=-2.812106578137D+03  KE= 5.717016258090D+02
  Exact polarizability:   0.000   0.000   0.000   0.000   0.000   0.000
 Approx polarizability: 257.772  20.120 186.336  22.534 -14.460 119.397
                          Isotropic Fermi Contact Couplings
        Atom                 a.u.       MegaHertz       Gauss      10(-4) cm-1
     1  C(13)             -0.02985     -33.56169     -11.97565     -11.19497
     2  C(13)              0.03107      34.93264      12.46483      11.65227
     3  C(13)              0.01197      13.45741       4.80194       4.48891
     4  C(13)             -0.01055     -11.85519      -4.23022      -3.95446
     5  H(1)              -0.00100      -4.44826      -1.58725      -1.48378
     6  C(13)             -0.01314     -14.76834      -5.26971      -4.92619
     7  H(1)              -0.00291     -12.99799      -4.63801      -4.33566
     8  C(13)              0.01312      14.75039       5.26330       4.92020
     9  H(1)               0.00064       2.87634       1.02635       0.95944
    10  C(13)              0.00845       9.50261       3.39077       3.16973
    11  C(13)             -0.00655      -7.36529      -2.62812      -2.45680
    12  H(1)              -0.00075      -3.37190      -1.20318      -1.12475
    13  C(13)              0.01023      11.50102       4.10385       3.83633
    14  H(1)               0.00034       1.52260       0.54330       0.50789
    15  C(13)             -0.00802      -9.01632      -3.21725      -3.00752
    16  H(1)               0.00042       1.88699       0.67332       0.62943
    17  H(1)              -0.00091      -4.06633      -1.45097      -1.35638
    18  C(13)              0.19866     223.32786      79.68893      74.49416
    19  H(1)              -0.02246    -100.40421     -35.82672     -33.49124
    20  H(1)              -0.00744     -33.25370     -11.86575     -11.09224
    21  H(1)              -0.00792     -35.41636     -12.63744     -11.81362
    22  O(17)              0.18393    -111.49674     -39.78481     -37.19131
    23  O(17)              0.00908      -5.50531      -1.96443      -1.83637
    24  H(1)              -0.00033      -1.48767      -0.53084      -0.49623
 --------------------------------------------------------
       Center         ----  Spin Dipole Couplings  ----
                      3XX-RR        3YY-RR        3ZZ-RR
 --------------------------------------------------------
     1   Atom        0.052066      0.019987     -0.072053
     2   Atom       -0.071040     -0.065607      0.136648
     3   Atom       -0.021305     -0.020707      0.042013
     4   Atom        0.019217      0.014944     -0.034161
     5   Atom       -0.001546      0.005418     -0.003872
     6   Atom        0.018231      0.008474     -0.026704
     7   Atom       -0.005750      0.009265     -0.003514
     8   Atom       -0.024388     -0.026152      0.050540
     9   Atom        0.002581     -0.001018     -0.001563
    10   Atom       -0.015386     -0.017599      0.032985
    11   Atom        0.010726      0.007640     -0.018365
    12   Atom       -0.000952      0.002245     -0.001294
    13   Atom       -0.019830     -0.022319      0.042149
    14   Atom        0.001007     -0.000275     -0.000732
    15   Atom        0.013303      0.009178     -0.022482
    16   Atom        0.002042     -0.001026     -0.001016
    17   Atom        0.004370     -0.004084     -0.000285
    18   Atom       -0.141631     -0.279452      0.421084
    19   Atom       -0.039466     -0.148832      0.188299
    20   Atom       -0.032660      0.018933      0.013727
    21   Atom       -0.014916      0.021274     -0.006357
    22   Atom        0.067039     -0.759717      0.692678
    23   Atom       -0.076178     -0.101624      0.177802
    24   Atom       -0.009467      0.013817     -0.004350
 --------------------------------------------------------
                        XY            XZ            YZ
 --------------------------------------------------------
     1   Atom        0.004985      0.024738     -0.028800
     2   Atom       -0.015793     -0.052273      0.075059
     3   Atom       -0.008687     -0.017328      0.019893
     4   Atom        0.003105      0.015203     -0.016835
     5   Atom       -0.000984     -0.000580     -0.001469
     6   Atom        0.003138      0.011965     -0.011947
     7   Atom       -0.002742     -0.000985     -0.005464
     8   Atom       -0.008291     -0.021652      0.025323
     9   Atom        0.000486      0.000642      0.000210
    10   Atom       -0.003930     -0.015879      0.015782
    11   Atom        0.001843      0.008465     -0.009070
    12   Atom        0.000116     -0.000115     -0.001378
    13   Atom       -0.006547     -0.018372      0.021936
    14   Atom       -0.000760      0.000688     -0.000461
    15   Atom        0.003333      0.010253     -0.010675
    16   Atom        0.000476      0.000565      0.000152
    17   Atom       -0.001345      0.001646      0.000741
    18   Atom       -0.093095     -0.383168      0.188926
    19   Atom       -0.056610     -0.224023      0.096029
    20   Atom       -0.018753     -0.003710     -0.032398
    21   Atom        0.034539     -0.002538      0.028427
    22   Atom        0.006791     -1.094717      0.000571
    23   Atom       -0.064542     -0.115077      0.060742
    24   Atom       -0.006026     -0.000612      0.004592
 --------------------------------------------------------


 ---------------------------------------------------------------------------------
              Anisotropic Spin Dipole Couplings in Principal Axis System
 ---------------------------------------------------------------------------------

       Atom             a.u.   MegaHertz   Gauss  10(-4) cm-1        Axes

              Baa    -0.0849   -11.398    -4.067    -3.802 -0.1806  0.2683  0.9463
     1 C(13)  Bbb     0.0281     3.773     1.346     1.259  0.0682  0.9632 -0.2601
              Bcc     0.0568     7.625     2.721     2.544  0.9812 -0.0175  0.1923
 
              Baa    -0.0907   -12.168    -4.342    -4.059 -0.1776  0.9216 -0.3451
     2 C(13)  Bbb    -0.0830   -11.133    -3.973    -3.714  0.9597  0.2398  0.1465
              Bcc     0.1736    23.301     8.314     7.772 -0.2178  0.3052  0.9271
 
              Baa    -0.0298    -3.993    -1.425    -1.332  0.6725  0.7389 -0.0424
     3 C(13)  Bbb    -0.0230    -3.080    -1.099    -1.027  0.6966 -0.6126  0.3734
              Bcc     0.0527     7.073     2.524     2.359 -0.2499  0.2807  0.9267
 
              Baa    -0.0432    -5.797    -2.069    -1.934 -0.2403  0.2818  0.9289
     4 C(13)  Bbb     0.0195     2.621     0.935     0.874  0.3783  0.9085 -0.1777
              Bcc     0.0237     3.176     1.133     1.059  0.8940 -0.3087  0.3249
 
              Baa    -0.0043    -2.291    -0.818    -0.764  0.2614  0.1701  0.9501
     5 H(1)   Bbb    -0.0015    -0.778    -0.278    -0.260  0.9576  0.0778 -0.2774
              Bcc     0.0058     3.070     1.095     1.024 -0.1211  0.9823 -0.1426
 
              Baa    -0.0333    -4.474    -1.596    -1.492 -0.2331  0.2833  0.9303
     6 C(13)  Bbb     0.0121     1.626     0.580     0.542  0.0532  0.9589 -0.2787
              Bcc     0.0212     2.848     1.016     0.950  0.9710  0.0154  0.2386
 
              Baa    -0.0077    -4.088    -1.459    -1.364  0.7478  0.3105  0.5868
     7 H(1)   Bbb    -0.0039    -2.087    -0.745    -0.696 -0.6512  0.1711  0.7394
              Bcc     0.0116     6.175     2.203     2.060 -0.1292  0.9350 -0.3302
 
              Baa    -0.0344    -4.622    -1.649    -1.542  0.3697  0.9120 -0.1776
     8 C(13)  Bbb    -0.0297    -3.991    -1.424    -1.331  0.8942 -0.2972  0.3349
              Bcc     0.0642     8.613     3.073     2.873 -0.2527  0.2826  0.9254
 
              Baa    -0.0017    -0.902    -0.322    -0.301 -0.1210 -0.2159  0.9689
     9 H(1)   Bbb    -0.0011    -0.564    -0.201    -0.188 -0.1634  0.9671  0.1950
              Bcc     0.0027     1.466     0.523     0.489  0.9791  0.1347  0.1523
 
              Baa    -0.0223    -2.988    -1.066    -0.997 -0.2389  0.9134 -0.3296
    10 C(13)  Bbb    -0.0199    -2.668    -0.952    -0.890  0.9318  0.3111  0.1870
              Bcc     0.0422     5.656     2.018     1.887 -0.2733  0.2624  0.9254
 
              Baa    -0.0234    -3.140    -1.120    -1.047 -0.2452  0.2853  0.9265
    11 C(13)  Bbb     0.0103     1.379     0.492     0.460  0.2662  0.9388 -0.2186
              Bcc     0.0131     1.761     0.628     0.587  0.9322 -0.1930  0.3062
 
              Baa    -0.0018    -0.946    -0.338    -0.316  0.0872  0.3209  0.9431
    12 H(1)   Bbb    -0.0010    -0.508    -0.181    -0.169  0.9954 -0.0660 -0.0696
              Bcc     0.0027     1.454     0.519     0.485  0.0399  0.9448 -0.3252
 
              Baa    -0.0292    -3.923    -1.400    -1.309  0.1836  0.9519 -0.2453
    13 C(13)  Bbb    -0.0248    -3.329    -1.188    -1.111  0.9493 -0.1069  0.2955
              Bcc     0.0540     7.252     2.588     2.419 -0.2551  0.2871  0.9233
 
              Baa    -0.0010    -0.559    -0.200    -0.187 -0.1633  0.3817  0.9097
    14 H(1)   Bbb    -0.0006    -0.317    -0.113    -0.106  0.5022  0.8259 -0.2564
              Bcc     0.0016     0.877     0.313     0.292  0.8492 -0.4150  0.3265
 
              Baa    -0.0285    -3.828    -1.366    -1.277 -0.2496  0.2842  0.9257
    15 C(13)  Bbb     0.0124     1.668     0.595     0.556 -0.0487  0.9511 -0.3051
              Bcc     0.0161     2.159     0.770     0.720  0.9671  0.1212  0.2235
 
              Baa    -0.0012    -0.627    -0.224    -0.209 -0.0346 -0.6585  0.7518
    16 H(1)   Bbb    -0.0010    -0.557    -0.199    -0.186 -0.2299  0.7373  0.6352
              Bcc     0.0022     1.184     0.422     0.395  0.9726  0.1508  0.1769
 
              Baa    -0.0045    -2.420    -0.864    -0.807  0.1880  0.9527 -0.2389
    17 H(1)   Bbb    -0.0005    -0.258    -0.092    -0.086 -0.2378  0.2801  0.9301
              Bcc     0.0050     2.678     0.955     0.893  0.9529 -0.1181  0.2792
 
              Baa    -0.3362   -45.110   -16.096   -15.047  0.8469 -0.2211  0.4837
    18 C(13)  Bbb    -0.3260   -43.751   -15.611   -14.594  0.2981  0.9505 -0.0875
              Bcc     0.6622    88.861    31.708    29.641 -0.4404  0.2183  0.8709
 
              Baa    -0.1778   -94.859   -33.848   -31.641  0.7240 -0.4141  0.5517
    19 H(1)   Bbb    -0.1728   -92.203   -32.900   -30.756  0.4648  0.8838  0.0534
              Bcc     0.3506   187.062    66.748    62.397 -0.5097  0.2178  0.8324
 
              Baa    -0.0430   -22.916    -8.177    -7.644  0.8614  0.4146  0.2934
    20 H(1)   Bbb    -0.0075    -3.990    -1.424    -1.331 -0.4882  0.5164  0.7036
              Bcc     0.0504    26.906     9.601     8.975 -0.1402  0.7493 -0.6472
 
              Baa    -0.0447   -23.832    -8.504    -7.949  0.6889 -0.5595  0.4608
    21 H(1)   Bbb    -0.0071    -3.812    -1.360    -1.272 -0.5960 -0.0754  0.7995
              Bcc     0.0518    27.644     9.864     9.221  0.4126  0.8254  0.3854
 
              Baa    -0.7650    55.354    19.752    18.464 -0.5391  0.7384 -0.4052
    22 O(17)  Bbb    -0.7534    54.516    19.453    18.185  0.5888  0.6744  0.4455
              Bcc     1.5184  -109.870   -39.204   -36.649 -0.6022 -0.0016  0.7984
 
              Baa    -0.1579    11.423     4.076     3.810  0.7140  0.6898  0.1200
    23 O(17)  Bbb    -0.0832     6.018     2.148     2.008 -0.5926  0.6866 -0.4211
              Bcc     0.2410   -17.442    -6.224    -5.818 -0.3729  0.2296  0.8990
 
              Baa    -0.0110    -5.856    -2.090    -1.953  0.9646  0.2501 -0.0842
    24 H(1)   Bbb    -0.0053    -2.847    -1.016    -0.950  0.1344 -0.1909  0.9724
              Bcc     0.0163     8.703     3.105     2.903 -0.2271  0.9492  0.2177
 

 ---------------------------------------------------------------------------------

 Calling FoFJK, ICntrl=    100147 FMM=F ISym2X=0 I1Cent= 0 IOpClX= 1 NMat=1 NMatS=1 NMatT=0.
 ***** Axes restored to original set *****
 -------------------------------------------------------------------
 Center     Atomic                   Forces (Hartrees/Bohr)
 Number     Number              X              Y              Z
 -------------------------------------------------------------------
      1        6           0.002421702    0.001406893    0.000631787
      2        6          -0.000354607   -0.002783789    0.000754479
      3        6           0.003482676    0.001038699    0.000706936
      4        6          -0.002834879    0.001821215   -0.001493677
      5        1           0.001846019    0.002088341   -0.000157245
      6        6          -0.000030631   -0.000236229   -0.000059624
      7        1           0.000842665   -0.002526990    0.000914077
      8        6           0.000038406    0.000313460   -0.000078702
      9        1          -0.000810234    0.002473308   -0.000966418
     10        6           0.002634321   -0.001872126    0.001425693
     11        6          -0.003340200   -0.001397559   -0.000345593
     12        1           0.000864453   -0.002511239    0.000988598
     13        6          -0.003305353   -0.001208644   -0.000447637
     14        1          -0.001876782   -0.002134700    0.000118649
     15        6           0.000647593    0.003152059   -0.000780908
     16        1          -0.000864659    0.002501919   -0.000956139
     17        1          -0.002640619    0.000292976   -0.000794931
     18        6          -0.073441579    0.028664762    0.124389826
     19        1          -0.002446533   -0.000743907   -0.005811774
     20        1           0.000497830   -0.002001941    0.001986216
     21        1           0.001370988    0.002208226    0.001056773
     22        8           0.079384944   -0.025479407   -0.119423442
     23        8          -0.005077201    0.000377987   -0.002411902
     24        1           0.002991676   -0.003443316    0.000754958
 -------------------------------------------------------------------
 Cartesian Forces:  Max     0.124389826 RMS     0.024483375
 FormGI is forming the generalized inverse of G from B-inverse, IUseBI=4.

 GradGradGradGradGradGradGradGradGradGradGradGradGradGradGradGradGradGrad
 Berny optimization.
 Internal  Forces:  Max     0.150124579 RMS     0.019325717
 Search for a saddle point.
 Step number   1 out of a maximum of  144
 All quantities printed in internal units (Hartrees-Bohrs-Radians)
 Swapping is turned off.
 Second derivative matrix not updated -- analytic derivatives used.
 ITU=  0
     Eigenvalues ---    0.00481   0.00898   0.01352   0.01427   0.01561
     Eigenvalues ---    0.01674   0.01778   0.01996   0.02079   0.02184
     Eigenvalues ---    0.02227   0.02388   0.02406   0.02433   0.02558
     Eigenvalues ---    0.02668   0.02813   0.02834   0.03382   0.03738
     Eigenvalues ---    0.06580   0.07315   0.08092   0.10365   0.11022
     Eigenvalues ---    0.11393   0.11539   0.11787   0.12192   0.12347
     Eigenvalues ---    0.12634   0.13227   0.17624   0.18042   0.18640
     Eigenvalues ---    0.19002   0.19616   0.19741   0.20129   0.20485
     Eigenvalues ---    0.21849   0.23600   0.27185   0.30069   0.34756
     Eigenvalues ---    0.35848   0.35980   0.36331   0.36586   0.36774
     Eigenvalues ---    0.36884   0.36920   0.37098   0.37540   0.38804
     Eigenvalues ---    0.41393   0.41659   0.42861   0.43124   0.45229
     Eigenvalues ---    0.50428   0.52244   0.54188   0.55159   0.55379
     Eigenvalues ---    0.64890
 Eigenvectors required to have negative eigenvalues:
                          D9        D12       D10       D13       D11
   1                   -0.40287  -0.40225  -0.40129  -0.40066  -0.38913
                          D14       D52       D53       D54       D51
   1                   -0.38850   0.11113   0.10512  -0.10061   0.08735
 RFO step:  Lambda0=4.974984929D-03 Lambda=-6.51221662D-02.
 Linear search not attempted -- option 19 set.
 Maximum step size (   0.300) exceeded in Quadratic search.
    -- Step size scaled by   0.933
 Iteration  1 RMS(Cart)=  0.08025629 RMS(Int)=  0.00434738
 Iteration  2 RMS(Cart)=  0.00702389 RMS(Int)=  0.00005716
 Iteration  3 RMS(Cart)=  0.00003727 RMS(Int)=  0.00005232
 Iteration  4 RMS(Cart)=  0.00000001 RMS(Int)=  0.00005232
 Variable       Old X    -DE/DX   Delta X   Delta X   Delta X     New X
                                 (Linear)    (Quad)   (Total)
    R1        2.60732   0.00639   0.00000   0.01258   0.01258   2.61990
    R2        2.69521   0.00437   0.00000   0.00943   0.00943   2.70464
    R3        2.74232   0.00339   0.00000  -0.00215  -0.00215   2.74017
    R4        2.66790   0.00500   0.00000   0.00778   0.00778   2.67568
    R5        2.04823   0.00282   0.00000   0.00556   0.00556   2.05379
    R6        2.56998   0.00712   0.00000   0.00832   0.00832   2.57830
    R7        2.04527   0.00279   0.00000   0.00560   0.00560   2.05088
    R8        2.68376   0.00477   0.00000   0.00976   0.00976   2.69353
    R9        2.04614   0.00277   0.00000   0.00525   0.00525   2.05139
   R10        2.68121   0.00510   0.00000   0.00805   0.00805   2.68926
   R11        2.67797   0.00487   0.00000   0.00726   0.00726   2.68524
   R12        2.67029   0.00497   0.00000   0.00654   0.00654   2.67683
   R13        2.58194   0.00695   0.00000   0.01057   0.01057   2.59251
   R14        2.04607   0.00282   0.00000   0.00546   0.00546   2.05154
   R15        2.66892   0.00472   0.00000   0.00698   0.00699   2.67591
   R16        2.04288   0.00284   0.00000   0.00581   0.00581   2.04869
[...]
    R5        2.05535  -0.00047   0.00000  -0.00071  -0.00071   2.05464
    R6        2.57066   0.00828   0.00000   0.00031   0.00033   2.57099
    R7        2.05131   0.00014   0.00000  -0.00086  -0.00086   2.05045
    R8        2.70733  -0.00196   0.00000   0.00068   0.00067   2.70800
    R9        2.05436  -0.00306   0.00000  -0.00068  -0.00068   2.05368
   R10        2.69910  -0.00527   0.00000  -0.00077  -0.00077   2.69832
   R11        2.68957  -0.00031   0.00000  -0.00058  -0.00058   2.68898
   R12        2.67198  -0.00004   0.00000   0.00039   0.00039   2.67237
   R13        2.59864  -0.00026   0.00000  -0.00017  -0.00017   2.59847
   R14        2.05423  -0.00060   0.00000  -0.00110  -0.00110   2.05313
   R15        2.67409  -0.00029   0.00000   0.00001   0.00001   2.67410
   R16        2.04964   0.00009   0.00000  -0.00094  -0.00094   2.04869
   R17        2.60450   0.00005   0.00000  -0.00021  -0.00021   2.60429
   R18        2.04986  -0.00013   0.00000  -0.00064  -0.00064   2.04922
   R19        2.05372  -0.00039   0.00000  -0.00111  -0.00111   2.05261
   R20        8.35169   0.00017   0.00000   0.23637   0.23634   8.58803
   R21        2.04926  -0.00028   0.00000  -0.00153  -0.00153   2.04773
   R22        2.04591   0.00002   0.00000  -0.00078  -0.00078   2.04513
   R23        1.83497   0.00789   0.00000   0.00127   0.00137   1.83634
   R24        2.68690   0.00105   0.00000   0.00256   0.00256   2.68946
   R25        1.83181  -0.00030   0.00000  -0.00118  -0.00118   1.83063
    A1        2.05517  -0.00371   0.00000   0.00068   0.00067   2.05584
    A2        2.12060  -0.02282   0.00000  -0.00456  -0.00460   2.11600
    A3        2.10718   0.02667   0.00000   0.00393   0.00397   2.11115
    A4        2.12512   0.00590   0.00000   0.00003   0.00003   2.12515
    A5        2.08710  -0.00310   0.00000   0.00114   0.00112   2.08822
    A6        2.06999  -0.00274   0.00000  -0.00077  -0.00079   2.06920
    A7        2.11790  -0.00472   0.00000  -0.00078  -0.00079   2.11711
    A8        2.06887   0.00209   0.00000   0.00030   0.00030   2.06918
    A9        2.09639   0.00266   0.00000   0.00050   0.00050   2.09688
   A10        2.11501   0.00362   0.00000   0.00024   0.00024   2.11525
   A11        2.09701   0.00619   0.00000   0.00169   0.00170   2.09871
   A12        2.07110  -0.00979   0.00000  -0.00193  -0.00194   2.06916
   A13        2.08280  -0.00115   0.00000  -0.00000  -0.00000   2.08280
   A14        2.12664   0.00037   0.00000  -0.00075  -0.00075   2.12589
   A15        2.07356   0.00080   0.00000   0.00071   0.00071   2.07427
   A16        2.06977   0.00001   0.00000  -0.00002  -0.00002   2.06975
   A17        2.13340  -0.00036   0.00000   0.00024   0.00024   2.13365
   A18        2.07984   0.00036   0.00000  -0.00024  -0.00024   2.07960
   A19        2.10646  -0.00009   0.00000  -0.00040  -0.00040   2.10606
   A20        2.07424  -0.00019   0.00000  -0.00075  -0.00076   2.07348
   A21        2.10246   0.00027   0.00000   0.00112   0.00112   2.10358
   A22        2.10011  -0.00052   0.00000   0.00002   0.00002   2.10013
   A23        2.09217   0.00048   0.00000  -0.00015  -0.00015   2.09202
   A24        2.09090   0.00004   0.00000   0.00013   0.00013   2.09103
   A25        2.09830  -0.00051   0.00000   0.00018   0.00018   2.09848
   A26        2.08886   0.00030   0.00000  -0.00007  -0.00007   2.08879
   A27        2.09597   0.00021   0.00000  -0.00013  -0.00013   2.09585
   A28        2.10807  -0.00006   0.00000  -0.00030  -0.00030   2.10777
   A29        2.07144   0.00009   0.00000   0.00073   0.00073   2.07218
   A30        2.10365  -0.00004   0.00000  -0.00043  -0.00043   2.10321
   A31        0.63241   0.04862   0.00000  -0.02257  -0.02181   0.61061
   A32        2.10623  -0.00438   0.00000   0.00054   0.00026   2.10649
   A33        2.11120   0.00537   0.00000   0.00054   0.00139   2.11259
   A34        1.84973  -0.01989   0.00000  -0.01118  -0.01107   1.83867
   A35        2.16761  -0.00436   0.00000   0.02464   0.02427   2.19188
   A36        2.06554  -0.00123   0.00000  -0.00092  -0.00151   2.06403
   A37        1.78025   0.09929   0.00000  -0.00207  -0.00207   1.77819
   A38        1.76948   0.00068   0.00000   0.00096   0.00096   1.77044
   A39        3.00999  -0.02793   0.00000   0.17463   0.17457   3.18455
   A40        1.16996   0.09000   0.00000   0.04536   0.04537   1.21533
    D1        0.03571   0.00022   0.00000  -0.00576  -0.00576   0.02995
    D2        3.12921   0.00161   0.00000   0.00421   0.00421   3.13342
    D3       -3.08244  -0.00684   0.00000  -0.00828  -0.00828  -3.09073
    D4        0.01106  -0.00545   0.00000   0.00169   0.00169   0.01275
    D5       -0.01232   0.00194   0.00000   0.00476   0.00476  -0.00756
    D6        3.13737  -0.00244   0.00000   0.00203   0.00202   3.13940
    D7        3.10602   0.00824   0.00000   0.00714   0.00715   3.11318
    D8       -0.02747   0.00386   0.00000   0.00441   0.00441  -0.02305
    D9        1.25488   0.00748   0.00000  -0.03935  -0.03929   1.21558
   D10       -0.04468  -0.00879   0.00000   0.00591   0.00611  -0.03857
   D11        3.11998   0.00373   0.00000  -0.00283  -0.00308   3.11690
   D12       -1.86258   0.00065   0.00000  -0.04190  -0.04184  -1.90443
   D13        3.12104  -0.01563   0.00000   0.00337   0.00356   3.12460
   D14        0.00252  -0.00310   0.00000  -0.00538  -0.00563  -0.00311
   D15       -0.03370  -0.00150   0.00000   0.00237   0.00236  -0.03134
   D16        3.08712  -0.00018   0.00000  -0.00003  -0.00003   3.08708
   D17       -3.12766  -0.00286   0.00000  -0.00756  -0.00756  -3.13522
   D18       -0.00684  -0.00155   0.00000  -0.00996  -0.00995  -0.01679
   D19       -0.01277  -0.00264   0.00000  -0.00032  -0.00032  -0.01309
   D20       -3.14148  -0.00479   0.00000  -0.00025  -0.00025   3.14146
   D21        3.12059   0.00181   0.00000   0.00246   0.00246   3.12305
   D22       -0.00811  -0.00034   0.00000   0.00253   0.00253  -0.00558
   D23        0.01499   0.00136   0.00000  -0.00320  -0.00320   0.01180
   D24       -3.10650   0.00061   0.00000  -0.00244  -0.00244  -3.10893
   D25       -3.13930   0.00359   0.00000  -0.00324  -0.00324   3.14065
   D26        0.02240   0.00284   0.00000  -0.00249  -0.00248   0.01992
   D27        0.00785   0.00065   0.00000   0.00219   0.00219   0.01004
   D28        3.12996   0.00137   0.00000   0.00146   0.00146   3.13142
   D29       -3.11361  -0.00062   0.00000   0.00453   0.00453  -3.10908
   D30        0.00851   0.00010   0.00000   0.00380   0.00380   0.01231
   D31       -3.12634  -0.00098   0.00000  -0.00000  -0.00000  -3.12634
   D32        0.00846  -0.00101   0.00000  -0.00460  -0.00460   0.00387
   D33       -0.00541   0.00031   0.00000  -0.00239  -0.00240  -0.00780
   D34        3.12939   0.00028   0.00000  -0.00699  -0.00699   3.12240
   D35        3.11545   0.00033   0.00000  -0.00326  -0.00326   3.11219
   D36       -0.01872   0.00048   0.00000  -0.00261  -0.00261  -0.02133
   D37       -0.00593  -0.00042   0.00000  -0.00250  -0.00250  -0.00843
   D38       -3.14010  -0.00027   0.00000  -0.00185  -0.00185   3.14124
   D39       -0.00045  -0.00041   0.00000  -0.00038  -0.00038  -0.00083
   D40        3.14146  -0.00023   0.00000  -0.00301  -0.00301   3.13845
   D41       -3.13514  -0.00038   0.00000   0.00430   0.00430  -3.13084
   D42        0.00676  -0.00020   0.00000   0.00167   0.00167   0.00844
   D43        0.00321   0.00008   0.00000   0.00176   0.00176   0.00498
   D44        3.13422   0.00023   0.00000   0.00025   0.00025   3.13447
   D45       -3.13869  -0.00009   0.00000   0.00438   0.00439  -3.13430
   D46       -0.00768   0.00006   0.00000   0.00288   0.00288  -0.00481
   D47        0.00005   0.00033   0.00000  -0.00028  -0.00028  -0.00023
   D48        3.13408   0.00018   0.00000  -0.00095  -0.00095   3.13313
   D49       -3.13091   0.00018   0.00000   0.00123   0.00123  -3.12968
   D50        0.00312   0.00003   0.00000   0.00057   0.00057   0.00369
   D51       -2.22149   0.04213   0.00000   0.04882   0.04811  -2.17338
   D52       -0.16706   0.02513   0.00000   0.09626   0.09573  -0.07134
   D53        2.15560   0.00353   0.00000   0.09827   0.09951   2.25511
   D54       -1.73698  -0.00157   0.00000  -0.00849  -0.00849  -1.74547
         Item               Value     Threshold  Converged?
 Maximum Force            0.099293     0.002500     NO 
 RMS     Force            0.014886     0.001667     NO 
 Maximum Displacement     0.670346     0.010000     NO 
 RMS     Displacement     0.123893     0.006667     NO 
 Predicted change in Energy=-2.607836D-03
 GradGradGradGradGradGradGradGradGradGradGradGradGradGradGradGradGradGrad

                          Input orientation:                          
 ---------------------------------------------------------------------
 Center     Atomic      Atomic             Coordinates (Angstroms)
 Number     Number       Type             X           Y           Z
 ---------------------------------------------------------------------
      1          6           0        1.491396    0.678352    1.297212
      2          6           0        0.655734   -0.445906    1.214426
      3          6           0        1.038325    1.901391    0.676581
      4          6           0       -0.154166    1.963558    0.024590
      5          1           0        1.673824    2.778933    0.734895
      6          6           0       -0.574964   -0.409104    0.518601
      7          1           0        0.970504   -1.384292    1.664433
      8          6           0       -1.000753    0.812609   -0.085546
      9          1           0       -0.478352    2.892875   -0.436194
     10          6           0       -1.392084   -1.565587    0.378438
     11          6           0       -2.576078   -1.507550   -0.318379
     12          1           0       -1.058592   -2.499153    0.823026
     13          6           0       -3.000070   -0.292472   -0.906806
     14          1           0       -3.187083   -2.397356   -0.419569
     15          6           0       -2.226056    0.841869   -0.790962
     16          1           0       -2.543448    1.774937   -1.247542
     17          1           0       -3.932399   -0.260227   -1.459661
     18          6           0        2.739741    0.612907    1.939652
     19          1           0        0.343885   -0.716531   -1.686059
     20          1           0        3.068600   -0.302393    2.417452
     21          1           0        3.391558    1.475801    1.981917
     22          8           0        1.214253   -0.853007   -2.096090
     23          8           0        1.820849   -1.773970   -1.196437
     24          1           0        2.384697   -1.186666   -0.671477
 ---------------------------------------------------------------------
                    Distance matrix (angstroms):
                    1          2          3          4          5
     1  C    0.000000
     2  C    1.403261   0.000000
     3  C    1.444396   2.438331   0.000000
     4  C    2.445239   2.806629   1.360512   0.000000
     5  H    2.182182   3.415559   1.085052   2.123892   0.000000
     6  C    2.461430   1.414265   2.822419   2.459805   3.907353
     7  H    2.158861   1.087269   3.431642   3.893850   4.323325
     8  C    2.853218   2.453108   2.433952   1.433011   3.419491
     9  H    3.433470   3.893348   2.126409   1.086761   2.452814
    10  C    3.767475   2.479137   4.244492   3.756662   5.329325
    11  C    4.892101   3.731112   5.067025   4.246396   6.127397
    12  H    4.101686   2.703318   4.876812   4.622907   5.944077
    13  C    5.096417   4.229430   4.860945   3.749179   5.828722
    14  H    5.856234   4.609267   6.126568   5.330425   7.194106
    15  C    4.266926   3.739608   3.732620   2.493198   4.614057
    16  H    4.894715   4.607407   4.067841   2.713404   4.766911
    17  H    6.156202   5.313773   5.826166   4.628526   6.744057
    18  C    1.405482   2.447473   2.479992   3.723765   2.698016
    19  H    3.487461   2.929728   3.594138   3.218268   4.455112
    20  H    2.168956   2.699960   3.465445   4.609397   3.777693
    21  H    2.171488   3.430267   2.724469   4.079362   2.490748
    22  O    3.733144   3.381892   3.912207   3.781917   4.627815
    23  O    3.512934   2.988897   4.198669   4.400080   4.947786
    24  H    2.855173   2.663581   3.628508   4.105392   4.267223
                    6          7          8          9         10
     6  C    0.000000
     7  H    2.156940   0.000000
     8  C    1.427892   3.431422   0.000000
     9  H    3.438609   4.980559   2.173330   0.000000
    10  C    1.422949   2.696011   2.454432   4.623463   0.000000
    11  C    2.431374   4.065093   2.814072   4.876277   1.375051
    12  H    2.166766   2.463354   3.434620   5.567430   1.086472
    13  C    2.815410   4.854771   2.427538   4.089862   2.420391
    14  H    3.414158   4.759716   3.898139   5.943403   2.133231
    15  C    2.450714   4.604645   1.414155   2.717895   2.803364
    16  H    3.429902   5.550512   2.157827   2.484490   3.889544
    17  H    3.899751   5.921312   3.410823   4.787480   3.396435
    18  C    3.748488   2.682303   4.258240   4.604240   4.924958
    19  H    2.408178   3.473378   2.589973   3.907179   2.827831
    20  H    4.110058   2.477811   4.905901   5.561825   5.064676
    21  H    4.628980   3.760642   4.899655   4.778238   5.891045
    22  O    3.199212   3.805681   3.423861   4.433035   3.663885
    23  O    3.247173   3.009902   3.985713   5.257731   3.584214
    24  H    3.283364   2.737786   3.975133   4.989495   3.938270
                   11         12         13         14         15
    11  C    0.000000
    12  H    2.142160   0.000000
    13  C    1.415073   3.410440   0.000000
    14  H    1.084122   2.466755   2.168619   0.000000
    15  C    2.421905   3.889776   1.378132   3.399130   0.000000
    16  H    3.411617   4.975932   2.144478   4.302073   1.086194
    17  H    2.167474   4.299095   1.084400   2.490905   2.138546
    18  C    6.152478   5.035782   6.470508   7.053712   5.671669
    19  H    3.320007   3.382335   3.459638   4.110584   3.135986
    20  H    6.387454   4.939803   6.919505   7.181304   6.295763
    21  H    7.057225   6.078414   7.233562   8.002936   6.296690
    22  O    4.237369   4.049303   4.414648   4.956561   4.051135
    23  O    4.491652   3.591003   5.051731   5.106027   4.835749
    24  H    4.983667   3.976480   5.463577   5.707360   5.038678
                   16         17         18         19         20
    16  H    0.000000
    17  H    2.473069   0.000000
    18  C    6.278584   7.538909   0.000000
    19  H    3.838801   4.306515   4.544592   0.000000
    20  H    7.017304   8.002984   1.083611   4.943115   0.000000
    21  H    6.763370   8.276387   1.082238   5.248683   1.859023
    22  O    4.663308   5.219623   4.556669   0.971747   4.910584
    23  O    5.625339   5.954877   4.046801   1.881311   4.096659
    24  H    5.778369   6.433134   3.191005   2.327083   3.284987
                   21         22         23         24
    21  H    0.000000
    22  O    5.176306   0.000000
    23  O    4.809373   1.423203   0.000000
    24  H    3.891400   1.873709   0.968728   0.000000
 Stoichiometry    C11H11O2(2)
 Framework group  C1[X(C11H11O2)]
 Deg. of freedom    66
 Full point group                 C1      NOp   1
 Largest Abelian subgroup         C1      NOp   1
 Largest concise Abelian subgroup C1      NOp   1
                         Standard orientation:                         
 ---------------------------------------------------------------------
 Center     Atomic      Atomic             Coordinates (Angstroms)
 Number     Number       Type             X           Y           Z
 ---------------------------------------------------------------------
      1          6           0        2.002687    0.622556    0.491918
      2          6           0        0.969502   -0.109094    1.097193
      3          6           0        1.639901    1.597476   -0.510178
      4          6           0        0.341711    1.796825   -0.865079
      5          1           0        2.428832    2.171693   -0.984732
      6          6           0       -0.383400    0.064301    0.723385
      7          1           0        1.209081   -0.856192    1.849922
      8          6           0       -0.715961    1.035335   -0.269274
      9          1           0        0.088067    2.535095   -1.621169
     10          6           0       -1.424712   -0.722938    1.289696
     11          6           0       -2.730379   -0.546816    0.896024
     12          1           0       -1.168589   -1.474032    2.031774
     13          6           0       -3.057598    0.423791   -0.080337
     14          1           0       -3.513091   -1.155819    1.333971
     15          6           0       -2.068553    1.196818   -0.649081
     16          1           0       -2.313784    1.937693   -1.404584
     17          1           0       -4.089888    0.549255   -0.387841
     18          6           0        3.348675    0.398469    0.828789
     19          1           0       -0.310513   -1.332654   -1.236851
     20          1           0        3.615051   -0.322781    1.592369
     21          1           0        4.144432    0.948607    0.343652
     22          8           0        0.332210   -1.890399   -1.706020
     23          8           0        0.989873   -2.548860   -0.629258
     24          1           0        1.802502   -2.027138   -0.552620
 ---------------------------------------------------------------------
 Rotational constants (GHZ):           1.1037714           0.6659936           0.5526176
 Standard basis: 6-31+G(d,p) (6D, 7F)
 There are   302 symmetry adapted cartesian basis functions of A   symmetry.
 There are   302 symmetry adapted basis functions of A   symmetry.
   302 basis functions,   493 primitive gaussians,   302 cartesian basis functions
    47 alpha electrons       46 beta electrons
       nuclear repulsion energy       751.2258488602 Hartrees.
 NAtoms=   24 NActive=   24 NUniq=   24 SFac= 1.00D+00 NAtFMM=   60 NAOKFM=F Big=F
 Integral buffers will be    131072 words long.
 Raffenetti 2 integral format.
 Two-electron integral symmetry is turned on.
 One-electron integrals computed using PRISM.
 NBasis=   302 RedAO= T EigKep=  1.05D-06  NBF=   302
 NBsUse=   301 1.00D-06 EigRej=  5.32D-07 NBFU=   301
 Initial guess from the checkpoint file:  "/scratch/dinius.ab/QMscratch/Gau-7663.chk"
 B after Tr=     0.000000    0.000000   -0.000000
         Rot=    0.998426    0.036919   -0.021386    0.036395 Ang=   6.43 deg.
 Initial guess <Sx>= 0.0000 <Sy>= 0.0000 <Sz>= 0.5000 <S**2>= 0.7858 S= 0.5177
 ExpMin= 4.38D-02 ExpMax= 5.48D+03 ExpMxC= 8.25D+02 IAcc=2 IRadAn=         4 AccDes= 0.00D+00
 Harris functional with IExCor= 1009 and IRadAn=       4 diagonalized for initial guess.
 HarFok:  IExCor= 1009 AccDes= 0.00D+00 IRadAn=         4 IDoV= 1 UseB2=F ITyADJ=14
 ICtDFT=  3500011 ScaDFX=  1.000000  1.000000  1.000000  1.000000
 FoFCou: FMM=F IPFlag=           0 FMFlag=      100000 FMFlg1=           0
         NFxFlg=           0 DoJE=T BraDBF=F KetDBF=T FulRan=T
         wScrn=  0.000000 ICntrl=       500 IOpCl=  0 I1Cent=   200000004 NGrid=           0
         NMat0=    1 NMatS0=      1 NMatT0=    0 NMatD0=    1 NMtDS0=    0 NMtDT0=    0
 Petite list used in FoFCou.
 Requested convergence on RMS density matrix=1.00D-08 within 128 cycles.
 Requested convergence on MAX density matrix=1.00D-06.
 Requested convergence on             energy=1.00D-06.
 No special actions if energy rises.
 Restarting incremental Fock formation.
 SCF Done:  E(UM062X) =  -575.884762035     A.U. after   22 cycles
            NFock= 22  Conv=0.20D-08     -V/T= 2.0086
 <Sx>= 0.0000 <Sy>= 0.0000 <Sz>= 0.5000 <S**2>= 0.7848 S= 0.5172
 <L.S>= 0.000000000000E+00
 Annihilation of the first spin contaminant:
 S**2 before annihilation     0.7848,   after     0.7507
