 Entering Gaussian System, Link 0=g16
 Input=rxn908-ooh.com
 Output=rxn908-ooh.log
 Initial command:
 /shared/centos7/gaussian/g16/l1.exe "/scratch/dinius.ab/QMscratch/Gau-319371.inp" -scrdir="/scratch/dinius.ab/QMscratch/"
 Default is to use a total of  20 processors:
                               20 via shared-memory
                                1 via Linda
 Entering Link 1 = /shared/centos7/gaussian/g16/l1.exe PID=    319372.
  
 Copyright (c) 1988,1990,1992,1993,1995,1998,2003,2009,2016,
            Gaussian, Inc.  All Rights Reserved.
  
 This is part of the Gaussian(R) 16 program.  It is based on
 the Gaussian(R) 09 system (copyright 2009, Gaussian, Inc.),
 the Gaussian(R) 03 system (copyright 2003, Gaussian, Inc.),
 the Gaussian(R) 98 system (copyright 1998, Gaussian, Inc.),
 the Gaussian(R) 94 system (copyright 1995, Gaussian, Inc.),
 the Gaussian 92(TM) system (copyright 1992, Gaussian, Inc.),
 the Gaussian 90(TM) system (copyright 1990, Gaussian, Inc.),
 the Gaussian 88(TM) system (copyright 1988, Gaussian, Inc.),
 the Gaussian 86(TM) system (copyright 1986, Carnegie Mellon
 University), and the Gaussian 82(TM) system (copyright 1983,
 Carnegie Mellon University). Gaussian is a federally registered
 trademark of Gaussian, Inc.
  
 This software contains proprietary and confidential information,
 including trade secrets, belonging to Gaussian, Inc.
  
 This software is provided under written license and may be
 used, copied, transmitted, or stored only in accord with that
 written license.
  
 The following legend is applicable only to US Government
 contracts under FAR:
  
                    RESTRICTED RIGHTS LEGEND
  
 Use, reproduction and disclosure by the US Government is
 subject to restrictions as set forth in subparagraphs (a)
 and (c) of the Commercial Computer Software - Restricted
 Rights clause in FAR 52.227-19.
  
 Gaussian, Inc.
 340 Quinnipiac St., Bldg. 40, Wallingford CT 06492
  
  
 ---------------------------------------------------------------
 Warning -- This program may not be used in any manner that
 competes with the business of Gaussian, Inc. or will provide
 assistance to any competitor of Gaussian, Inc.  The licensee
 of this program is prohibited from giving any competitor of
 Gaussian, Inc. access to this program.  By using this program,
 the user acknowledges that Gaussian, Inc. is engaged in the
 business of creating and licensing software in the field of
 computational chemistry and represents and warrants to the
 licensee that it is not a competitor of Gaussian, Inc. and that
 it will not use this program in any manner prohibited above.
 ---------------------------------------------------------------
  

 Cite this work as:
 Gaussian 16, Revision A.03,
 M. J. Frisch, G. W. Trucks, H. B. Schlegel, G. E. Scuseria, 
 M. A. Robb, J. R. Cheeseman, G. Scalmani, V. Barone, 
 G. A. Petersson, H. Nakatsuji, X. Li, M. Caricato, A. V. Marenich, 
 J. Bloino, B. G. Janesko, R. Gomperts, B. Mennucci, H. P. Hratchian, 
 J. V. Ortiz, A. F. Izmaylov, J. L. Sonnenberg, D. Williams-Young, 
 F. Ding, F. Lipparini, F. Egidi, J. Goings, B. Peng, A. Petrone, 
 T. Henderson, D. Ranasinghe, V. G. Zakrzewski, J. Gao, N. Rega, 
 G. Zheng, W. Liang, M. Hada, M. Ehara, K. Toyota, R. Fukuda, 
 J. Hasegawa, M. Ishida, T. Nakajima, Y. Honda, O. Kitao, H. Nakai, 
 T. Vreven, K. Throssell, J. A. Montgomery, Jr., J. E. Peralta, 
 F. Ogliaro, M. J. Bearpark, J. J. Heyd, E. N. Brothers, K. N. Kudin, 
 V. N. Staroverov, T. A. Keith, R. Kobayashi, J. Normand, 
 K. Raghavachari, A. P. Rendell, J. C. Burant, S. S. Iyengar, 
 J. Tomasi, M. Cossi, J. M. Millam, M. Klene, C. Adamo, R. Cammi, 
 J. W. Ochterski, R. L. Martin, K. Morokuma, O. Farkas, 
 J. B. Foresman, and D. J. Fox, Gaussian, Inc., Wallingford CT, 2016.
 
 ******************************************
 Gaussian 16:  EM64L-G16RevA.03 25-Dec-2016
                19-Feb-2019 
 ******************************************
 ----------------------------------------------------------------------
 # m062x/6-31+g(d,p) Opt=(Loose,maxcycle=1000,CalcFC) Int(Grid=SG1) fre
 q
 ----------------------------------------------------------------------
 1/6=1000,7=-1,10=4,18=20,19=15,26=2,38=1/1,3;
 2/9=110,12=2,17=6,18=5,40=1/2;
 3/5=1,6=6,7=111,11=2,25=1,30=1,71=2,74=-55,75=1,140=1/1,2,3;
 4//1;
 5/5=2,38=5/2;
 8/6=4,10=90,11=11/1;
 11/6=1,8=1,9=11,15=111,16=1/1,2,10;
 10/6=1,13=1/2;
 6/7=2,8=2,9=2,10=2,28=1/1;
 7/10=1,18=20,25=1/1,2,3,16;
 1/6=1000,7=-1,10=4,18=20,19=15,26=2/3(2);
 2/9=110/2;
 99//99;
 2/9=110/2;
 3/5=1,6=6,7=111,11=2,25=1,30=1,71=1,74=-55,75=1/1,2,3;
 4/5=5,16=3,69=1/1;
 5/5=2,38=5/2;
 7//1,2,3,16;
 1/6=1000,7=-1,18=20,19=15,26=2/3(-5);
 2/9=110/2;
 6/7=2,8=2,9=2,10=2,19=2,28=1/1;
 99/9=1/99;
 --------------------------
 Rxn 908 Reactants with OOH
 --------------------------
 Symbolic Z-matrix:
 Charge =  0 Multiplicity = 2
 C                     1.26636   0.42428   0.70388 
 C                     0.3638   -0.61738   0.76705 
 C                     0.82353   1.6804    0.19375 
 C                    -0.46344   1.86063  -0.20719 
 H                     1.53352   2.49467   0.12833 
 C                    -0.979    -0.45816   0.36123 
 H                     0.68489  -1.58249   1.14156 
 C                    -1.4057    0.80046  -0.13566 
 H                    -0.78953   2.81883  -0.59178 
 C                    -1.91612  -1.51867   0.43446 
 C                    -3.20909  -1.33695   0.03197 
 H                    -1.58714  -2.47676   0.81676 
 C                    -3.63118  -0.08427  -0.46534 
 H                    -3.91484  -2.15363   0.0921 
 C                    -2.7489    0.95833  -0.54507 
 H                    -3.06717   1.91949  -0.92879 
 H                    -4.65484   0.04477  -0.78765 
 C                     2.65815   0.24161   1.07192 
 H                     3.21352   0.02774   0.13645 
 H                     2.88105  -0.62993   1.6801 
 H                     3.1938    1.13442   1.38227 
 O                     4.24236  -0.28881  -1.05895 
 O                     3.57335  -1.37537  -1.62373 
 H                     4.13865  -2.12109  -1.3913 
 
 Add virtual bond connecting atoms O22        and H19        Dist= 3.04D+00.

 GradGradGradGradGradGradGradGradGradGradGradGradGradGradGradGradGradGrad
 Berny optimization.
 Initialization pass.
                           ----------------------------
                           !    Initial Parameters    !
                           ! (Angstroms and Degrees)  !
 --------------------------                            --------------------------
 ! Name  Definition              Value          Derivative Info.                !
 --------------------------------------------------------------------------------
 ! R1    R(1,2)                  1.3797         calculate D2E/DX2 analytically  !
 ! R2    R(1,3)                  1.4262         calculate D2E/DX2 analytically  !
 ! R3    R(1,18)                 1.4512         calculate D2E/DX2 analytically  !
 ! R4    R(2,6)                  1.4118         calculate D2E/DX2 analytically  !
 ! R5    R(2,7)                  1.0839         calculate D2E/DX2 analytically  !
 ! R6    R(3,4)                  1.36           calculate D2E/DX2 analytically  !
 ! R7    R(3,5)                  1.0823         calculate D2E/DX2 analytically  !
 ! R8    R(4,8)                  1.4202         calculate D2E/DX2 analytically  !
 ! R9    R(4,9)                  1.0828         calculate D2E/DX2 analytically  !
 ! R10   R(6,8)                  1.4188         calculate D2E/DX2 analytically  !
 ! R11   R(6,10)                 1.4171         calculate D2E/DX2 analytically  !
 ! R12   R(8,15)                 1.4131         calculate D2E/DX2 analytically  !
 ! R13   R(10,11)                1.3663         calculate D2E/DX2 analytically  !
 ! R14   R(10,12)                1.0827         calculate D2E/DX2 analytically  !
 ! R15   R(11,13)                1.4123         calculate D2E/DX2 analytically  !
 ! R16   R(11,14)                1.081          calculate D2E/DX2 analytically  !
 ! R17   R(13,15)                1.3681         calculate D2E/DX2 analytically  !
 ! R18   R(13,17)                1.0809         calculate D2E/DX2 analytically  !
 ! R19   R(15,16)                1.0828         calculate D2E/DX2 analytically  !
 ! R20   R(18,19)                1.1087         calculate D2E/DX2 analytically  !
 ! R21   R(18,20)                1.0859         calculate D2E/DX2 analytically  !
 ! R22   R(18,21)                1.0864         calculate D2E/DX2 analytically  !
 ! R23   R(19,22)                1.6086         calculate D2E/DX2 analytically  !
 ! R24   R(22,23)                1.3954         calculate D2E/DX2 analytically  !
 ! R25   R(23,24)                0.9642         calculate D2E/DX2 analytically  !
 ! A1    A(2,1,3)              118.5671         calculate D2E/DX2 analytically  !
 ! A2    A(2,1,18)             121.382          calculate D2E/DX2 analytically  !
 ! A3    A(3,1,18)             119.9574         calculate D2E/DX2 analytically  !
 ! A4    A(1,2,6)              121.5931         calculate D2E/DX2 analytically  !
 ! A5    A(1,2,7)              119.622          calculate D2E/DX2 analytically  !
 ! A6    A(6,2,7)              118.7839         calculate D2E/DX2 analytically  !
 ! A7    A(1,3,4)              121.0633         calculate D2E/DX2 analytically  !
 ! A8    A(1,3,5)              118.721          calculate D2E/DX2 analytically  !
 ! A9    A(4,3,5)              120.2156         calculate D2E/DX2 analytically  !
 ! A10   A(3,4,8)              120.9361         calculate D2E/DX2 analytically  !
 ! A11   A(3,4,9)              120.4635         calculate D2E/DX2 analytically  !
 ! A12   A(8,4,9)              118.6001         calculate D2E/DX2 analytically  !
 ! A13   A(2,6,8)              119.1275         calculate D2E/DX2 analytically  !
 ! A14   A(2,6,10)             121.9862         calculate D2E/DX2 analytically  !
 ! A15   A(8,6,10)             118.8863         calculate D2E/DX2 analytically  !
 ! A16   A(4,8,6)              118.7057         calculate D2E/DX2 analytically  !
 ! A17   A(4,8,15)             122.1869         calculate D2E/DX2 analytically  !
 ! A18   A(6,8,15)             119.1073         calculate D2E/DX2 analytically  !
 ! A19   A(6,10,11)            120.7328         calculate D2E/DX2 analytically  !
 ! A20   A(6,10,12)            118.6543         calculate D2E/DX2 analytically  !
 ! A21   A(11,10,12)           120.6129         calculate D2E/DX2 analytically  !
 ! A22   A(10,11,13)           120.2991         calculate D2E/DX2 analytically  !
 ! A23   A(10,11,14)           120.062          calculate D2E/DX2 analytically  !
 ! A24   A(13,11,14)           119.6389         calculate D2E/DX2 analytically  !
 ! A25   A(11,13,15)           120.2456         calculate D2E/DX2 analytically  !
 ! A26   A(11,13,17)           119.5974         calculate D2E/DX2 analytically  !
 ! A27   A(15,13,17)           120.1562         calculate D2E/DX2 analytically  !
 ! A28   A(8,15,13)            120.7288         calculate D2E/DX2 analytically  !
 ! A29   A(8,15,16)            118.7682         calculate D2E/DX2 analytically  !
 ! A30   A(13,15,16)           120.5023         calculate D2E/DX2 analytically  !
 ! A31   A(1,18,19)            106.9003         calculate D2E/DX2 analytically  !
 ! A32   A(1,18,20)            116.1004         calculate D2E/DX2 analytically  !
 ! A33   A(1,18,21)            116.2228         calculate D2E/DX2 analytically  !
 ! A34   A(19,18,20)           102.4105         calculate D2E/DX2 analytically  !
 ! A35   A(19,18,21)            98.7761         calculate D2E/DX2 analytically  !
 ! A36   A(20,18,21)           113.4762         calculate D2E/DX2 analytically  !
 ! A37   A(19,22,23)            98.4741         calculate D2E/DX2 analytically  !
 ! A38   A(22,23,24)           102.9189         calculate D2E/DX2 analytically  !
 ! A39   L(18,19,22,9,-1)      188.3524         calculate D2E/DX2 analytically  !
 ! A40   L(18,19,22,9,-2)      174.1612         calculate D2E/DX2 analytically  !
 ! D1    D(3,1,2,6)             -1.033          calculate D2E/DX2 analytically  !
 ! D2    D(3,1,2,7)            179.326          calculate D2E/DX2 analytically  !
 ! D3    D(18,1,2,6)          -177.5166         calculate D2E/DX2 analytically  !
 ! D4    D(18,1,2,7)             2.8424         calculate D2E/DX2 analytically  !
 ! D5    D(2,1,3,4)              0.8616         calculate D2E/DX2 analytically  !
 ! D6    D(2,1,3,5)           -179.036          calculate D2E/DX2 analytically  !
 ! D7    D(18,1,3,4)           177.3967         calculate D2E/DX2 analytically  !
 ! D8    D(18,1,3,5)            -2.5009         calculate D2E/DX2 analytically  !
 ! D9    D(2,1,18,19)           94.8657         calculate D2E/DX2 analytically  !
 ! D10   D(2,1,18,20)          -18.6479         calculate D2E/DX2 analytically  !
 ! D11   D(2,1,18,21)         -156.0228         calculate D2E/DX2 analytically  !
 ! D12   D(3,1,18,19)          -81.5696         calculate D2E/DX2 analytically  !
 ! D13   D(3,1,18,20)          164.9168         calculate D2E/DX2 analytically  !
 ! D14   D(3,1,18,21)           27.5418         calculate D2E/DX2 analytically  !
 ! D15   D(1,2,6,8)              0.629          calculate D2E/DX2 analytically  !
 ! D16   D(1,2,6,10)          -179.3887         calculate D2E/DX2 analytically  !
 ! D17   D(7,2,6,8)           -179.7271         calculate D2E/DX2 analytically  !
 ! D18   D(7,2,6,10)             0.2552         calculate D2E/DX2 analytically  !
 ! D19   D(1,3,4,8)             -0.2817         calculate D2E/DX2 analytically  !
 ! D20   D(1,3,4,9)            179.9198         calculate D2E/DX2 analytically  !
 ! D21   D(5,3,4,8)            179.6145         calculate D2E/DX2 analytically  !
 ! D22   D(5,3,4,9)             -0.1841         calculate D2E/DX2 analytically  !
 ! D23   D(3,4,8,6)             -0.1359         calculate D2E/DX2 analytically  !
 ! D24   D(3,4,8,15)          -179.9906         calculate D2E/DX2 analytically  !
 ! D25   D(9,4,8,6)            179.6663         calculate D2E/DX2 analytically  !
 ! D26   D(9,4,8,15)            -0.1884         calculate D2E/DX2 analytically  !
 ! D27   D(2,6,8,4)             -0.0269         calculate D2E/DX2 analytically  !
 ! D28   D(2,6,8,15)           179.8324         calculate D2E/DX2 analytically  !
 ! D29   D(10,6,8,4)           179.9903         calculate D2E/DX2 analytically  !
 ! D30   D(10,6,8,15)           -0.1504         calculate D2E/DX2 analytically  !
 ! D31   D(2,6,10,11)         -179.8604         calculate D2E/DX2 analytically  !
 ! D32   D(2,6,10,12)            0.1824         calculate D2E/DX2 analytically  !
 ! D33   D(8,6,10,11)            0.1219         calculate D2E/DX2 analytically  !
 ! D34   D(8,6,10,12)         -179.8353         calculate D2E/DX2 analytically  !
 ! D35   D(4,8,15,13)          179.8854         calculate D2E/DX2 analytically  !
 ! D36   D(4,8,15,16)            0.2069         calculate D2E/DX2 analytically  !
 ! D37   D(6,8,15,13)            0.0312         calculate D2E/DX2 analytically  !
 ! D38   D(6,8,15,16)         -179.6473         calculate D2E/DX2 analytically  !
 ! D39   D(6,10,11,13)           0.027          calculate D2E/DX2 analytically  !
 ! D40   D(6,10,11,14)         179.9699         calculate D2E/DX2 analytically  !
 ! D41   D(12,10,11,13)        179.9834         calculate D2E/DX2 analytically  !
 ! D42   D(12,10,11,14)         -0.0737         calculate D2E/DX2 analytically  !
 ! D43   D(10,11,13,15)         -0.1498         calculate D2E/DX2 analytically  !
 ! D44   D(10,11,13,17)        179.537          calculate D2E/DX2 analytically  !
 ! D45   D(14,11,13,15)        179.9071         calculate D2E/DX2 analytically  !
 ! D46   D(14,11,13,17)         -0.4061         calculate D2E/DX2 analytically  !
 ! D47   D(11,13,15,8)           0.1191         calculate D2E/DX2 analytically  !
 ! D48   D(11,13,15,16)        179.792          calculate D2E/DX2 analytically  !
 ! D49   D(17,13,15,8)        -179.5659         calculate D2E/DX2 analytically  !
 ! D50   D(17,13,15,16)          0.107          calculate D2E/DX2 analytically  !
 ! D51   D(1,18,22,23)         -53.5456         calculate D2E/DX2 analytically  !
 ! D52   D(20,18,22,23)         70.0146         calculate D2E/DX2 analytically  !
 ! D53   D(21,18,22,23)       -175.0293         calculate D2E/DX2 analytically  !
 ! D54   D(19,22,23,24)       -109.0769         calculate D2E/DX2 analytically  !
 --------------------------------------------------------------------------------
 Trust Radius=3.00D-01 FncErr=1.00D-05 GrdErr=1.00D-04 EigMax=2.50D+02 EigMin=1.00D-04
 Number of steps in this run=    144 maximum allowed number of steps=    144.
 GradGradGradGradGradGradGradGradGradGradGradGradGradGradGradGradGradGrad

                          Input orientation:                          
 ---------------------------------------------------------------------
 Center     Atomic      Atomic             Coordinates (Angstroms)
 Number     Number       Type             X           Y           Z
 ---------------------------------------------------------------------
      1          6           0        1.266360    0.424280    0.703880
      2          6           0        0.363800   -0.617380    0.767050
      3          6           0        0.823530    1.680400    0.193750
      4          6           0       -0.463440    1.860630   -0.207190
      5          1           0        1.533520    2.494670    0.128330
      6          6           0       -0.979000   -0.458160    0.361230
      7          1           0        0.684890   -1.582490    1.141560
      8          6           0       -1.405700    0.800460   -0.135660
      9          1           0       -0.789530    2.818830   -0.591780
     10          6           0       -1.916120   -1.518670    0.434460
     11          6           0       -3.209090   -1.336950    0.031970
     12          1           0       -1.587140   -2.476760    0.816760
     13          6           0       -3.631180   -0.084270   -0.465340
     14          1           0       -3.914840   -2.153630    0.092100
     15          6           0       -2.748900    0.958330   -0.545070
     16          1           0       -3.067170    1.919490   -0.928790
     17          1           0       -4.654840    0.044770   -0.787650
     18          6           0        2.658150    0.241610    1.071920
     19          1           0        3.213520    0.027740    0.136450
     20          1           0        2.881050   -0.629930    1.680100
     21          1           0        3.193800    1.134420    1.382270
     22          8           0        4.242360   -0.288810   -1.058950
     23          8           0        3.573350   -1.375370   -1.623730
     24          1           0        4.138650   -2.121090   -1.391300
 ---------------------------------------------------------------------
                    Distance matrix (angstroms):
                    1          2          3          4          5
     1  C    0.000000
     2  C    1.379732   0.000000
     3  C    1.426243   2.412430   0.000000
     4  C    2.425976   2.788190   1.359973   0.000000
     5  H    2.165444   3.385419   1.082313   2.121893   0.000000
     6  C    2.436750   1.411791   2.801893   2.442476   3.884096
     7  H    2.134666   1.083879   3.400591   3.872062   4.286029
     8  C    2.825994   2.440550   2.419147   1.420187   3.402801
     9  H    3.411640   3.870934   2.124863   1.082770   2.453609
    10  C    3.738425   2.474060   4.218729   3.733854   5.301003
    11  C    4.856238   3.718019   5.039107   4.221411   6.097782
    12  H    4.070778   2.695539   4.845766   4.596099   5.909955
    13  C    5.060790   4.214600   4.836621   3.726104   5.803232
    14  H    5.819341   4.595909   6.096086   5.302454   7.161887
    15  C    4.238797   3.727388   3.718803   2.480249   4.599231
    16  H    4.866287   4.591638   4.056452   2.702514   4.755490
    17  H    6.117949   5.295496   5.800946   4.604575   6.718395
    18  C    1.451172   2.468775   2.491411   3.741881   2.689133
    19  H    2.066556   2.989104   2.906307   4.122816   2.984662
    20  H    2.161386   2.677754   3.432237   4.577157   3.739913
    21  H    2.163224   3.384701   2.707186   4.053291   2.485795
    22  O    3.531663   4.299472   4.139498   5.243104   4.061429
    23  O    3.738811   4.073277   4.494716   5.364136   4.712518
    24  H    4.372498   4.600990   5.287129   6.199632   5.513730
                    6          7          8          9         10
     6  C    0.000000
     7  H    2.154429   0.000000
     8  C    1.418836   3.417647   0.000000
     9  H    3.418010   4.954796   2.159057   0.000000
    10  C    1.417123   2.696167   2.442116   4.597421   0.000000
    11  C    2.419501   4.056422   2.801578   4.849107   1.366306
    12  H    2.156870   2.463196   3.417630   5.537458   1.082736
    13  C    2.803047   4.843062   2.417477   4.064351   2.410098
    14  H    3.400913   4.752377   3.882564   5.912750   2.124916
    15  C    2.441387   4.592538   1.413055   2.702364   2.790794
    16  H    3.417283   5.534272   2.154476   2.471848   3.873540
    17  H    3.883898   5.906144   3.398981   4.761764   3.382083
    18  C    3.771421   2.688112   4.276148   4.614809   4.942559
    19  H    4.226565   3.161812   4.691304   4.934056   5.365948
    20  H    4.082758   2.453674   4.870239   5.525264   5.035307
    21  H    4.581604   3.705964   4.855002   4.754054   5.835110
    22  O    5.413704   4.378521   5.825767   5.932587   6.455208
    23  O    5.050270   4.004114   5.633784   6.139296   5.864381
    24  H    5.659244   4.316703   6.391549   7.023461   6.352680
                   11         12         13         14         15
    11  C    0.000000
    12  H    2.132084   0.000000
    13  C    1.412333   3.397924   0.000000
    14  H    1.081048   2.459214   2.161817   0.000000
    15  C    2.411029   3.873514   1.368134   3.383740   0.000000
    16  H    3.398176   4.956253   2.132592   4.283815   1.082758
    17  H    2.161277   4.282876   1.080932   2.480831   2.127450
    18  C    6.164240   5.047487   6.482672   7.064094   5.688984
    19  H    6.566827   5.457259   6.872017   7.454788   6.072966
    20  H    6.348702   4.911299   6.878212   7.143355   6.258617
    21  H    6.994854   6.018123   7.174902   7.937794   6.249906
    22  O    7.603474   6.502960   7.898534   8.446442   7.120193
    23  O    6.981713   5.813752   7.410402   7.721577   6.824991
    24  H    7.525281   6.147089   8.085561   8.189031   7.591922
                   16         17         18         19         20
    16  H    0.000000
    17  H    2.460730   0.000000
    18  C    6.292647   7.548283   0.000000
    19  H    6.645338   7.922458   1.108729   0.000000
    20  H    6.977619   7.958307   1.085886   1.710533   0.000000
    21  H    6.719902   8.215658   1.086438   1.666492   1.816438
    22  O    7.636934   8.907584   2.707706   1.608632   3.077649
    23  O    7.445505   8.391599   3.273949   2.279568   3.456914
    24  H    8.274300   9.076387   3.720441   2.794165   3.638491
                   21         22         23         24
    21  H    0.000000
    22  O    3.014070   0.000000
    23  O    3.934354   1.395408   0.000000
    24  H    4.379929   1.865064   0.964202   0.000000
 Stoichiometry    C11H11O2(2)
 Framework group  C1[X(C11H11O2)]
 Deg. of freedom    66
 Full point group                 C1      NOp   1
 Largest Abelian subgroup         C1      NOp   1
 Largest concise Abelian subgroup C1      NOp   1
                         Standard orientation:                         
 ---------------------------------------------------------------------
 Center     Atomic      Atomic             Coordinates (Angstroms)
 Number     Number       Type             X           Y           Z
 ---------------------------------------------------------------------
      1          6           0        1.110989    0.559336    0.791942
      2          6           0        0.238792   -0.503917    0.903410
      3          6           0        0.660355    1.745792    0.141235
      4          6           0       -0.605829    1.841323   -0.345776
      5          1           0        1.347541    2.575612    0.038404
      6          6           0       -1.082166   -0.431764    0.410444
      7          1           0        0.566942   -1.417815    1.384972
      8          6           0       -1.517559    0.758993   -0.226445
      9          1           0       -0.938165    2.747228   -0.836979
     10          6           0       -1.988857   -1.514089    0.531781
     11          6           0       -3.260983   -1.417435    0.042756
     12          1           0       -1.653507   -2.419992    1.020858
     13          6           0       -3.691569   -0.232461   -0.593732
     14          1           0       -3.943554   -2.249992    0.140793
     15          6           0       -2.838665    0.829455   -0.722874
     16          1           0       -3.163340    1.738669   -1.213060
     17          1           0       -4.698055   -0.171035   -0.983124
     18          6           0        2.483768    0.462112    1.252298
     19          1           0        3.099361    0.182499    0.373582
     20          1           0        2.697360   -0.340527    1.951797
     21          1           0        2.972543    1.398681    1.505843
     22          8           0        4.205789   -0.206301   -0.727484
     23          8           0        3.604835   -1.364114   -1.222949
     24          1           0        4.178233   -2.064079   -0.889857
 ---------------------------------------------------------------------
 Rotational constants (GHZ):           1.5632649           0.3998350           0.3640412
 Standard basis: 6-31+G(d,p) (6D, 7F)
 There are   302 symmetry adapted cartesian basis functions of A   symmetry.
 There are   302 symmetry adapted basis functions of A   symmetry.
   302 basis functions,   493 primitive gaussians,   302 cartesian basis functions
    47 alpha electrons       46 beta electrons
       nuclear repulsion energy       714.1798649565 Hartrees.
 NAtoms=   24 NActive=   24 NUniq=   24 SFac= 1.00D+00 NAtFMM=   60 NAOKFM=F Big=F
 Integral buffers will be    131072 words long.
 Raffenetti 2 integral format.
 Two-electron integral symmetry is turned on.
 One-electron integrals computed using PRISM.
 NBasis=   302 RedAO= T EigKep=  1.72D-06  NBF=   302
 NBsUse=   300 1.00D-06 EigRej=  9.75D-07 NBFU=   300
 ExpMin= 4.38D-02 ExpMax= 5.48D+03 ExpMxC= 8.25D+02 IAcc=2 IRadAn=         4 AccDes= 0.00D+00
 Harris functional with IExCor= 1009 and IRadAn=       4 diagonalized for initial guess.
 HarFok:  IExCor= 1009 AccDes= 0.00D+00 IRadAn=         4 IDoV= 1 UseB2=F ITyADJ=14
 ICtDFT=  3500011 ScaDFX=  1.000000  1.000000  1.000000  1.000000
 FoFCou: FMM=F IPFlag=           0 FMFlag=      100000 FMFlg1=           0
         NFxFlg=           0 DoJE=T BraDBF=F KetDBF=T FulRan=T
         wScrn=  0.000000 ICntrl=       500 IOpCl=  0 I1Cent=   200000004 NGrid=           0
         NMat0=    1 NMatS0=      1 NMatT0=    0 NMatD0=    1 NMtDS0=    0 NMtDT0=    0
 Petite list used in FoFCou.
 Initial guess <Sx>= 0.0000 <Sy>= 0.0000 <Sz>= 0.5000 <S**2>= 0.7500 S= 0.5000
 Requested convergence on RMS density matrix=1.00D-08 within 128 cycles.
 Requested convergence on MAX density matrix=1.00D-06.
 Requested convergence on             energy=1.00D-06.
 No special actions if energy rises.
 Restarting incremental Fock formation.
 SCF Done:  E(UM062X) =  -575.864403542     A.U. after   23 cycles
            NFock= 23  Conv=0.83D-08     -V/T= 2.0082
 <Sx>= 0.0000 <Sy>= 0.0000 <Sz>= 0.5000 <S**2>= 0.7569 S= 0.5034
 <L.S>= 0.000000000000E+00
 Annihilation of the first spin contaminant:
 S**2 before annihilation     0.7569,   after     0.7500
 DoSCS=F DFT=T ScalE2(SS,OS)=  1.000000  1.000000
 Range of M.O.s used for correlation:     1   300
 NBasis=   302 NAE=    47 NBE=    46 NFC=     0 NFV=     0
 NROrb=    300 NOA=    47 NOB=    46 NVA=   253 NVB=   254

 **** Warning!!: The largest alpha MO coefficient is  0.17345945D+03


 **** Warning!!: The largest beta MO coefficient is  0.16906692D+03

 Symmetrizing basis deriv contribution to polar:
 IMax=3 JMax=2 DiffMx= 0.00D+00
 G2DrvN: will do    25 centers at a time, making    1 passes.
 Calling FoFCou, ICntrl=  3107 FMM=F I1Cent=   0 AccDes= 0.00D+00.
 End of G2Drv F.D. properties file   721 does not exist.
 End of G2Drv F.D. properties file   722 does not exist.
 End of G2Drv F.D. properties file   788 does not exist.
          IDoAtm=111111111111111111111111
          Differentiating once with respect to nuclear coordinates.
 Keep R1 and R2 ints in memory in canonical form, NReq=2115998067.
          There are    75 degrees of freedom in the 1st order CPHF.  IDoFFX=6 NUNeed=     0.
     69 vectors produced by pass  0 Test12= 3.14D-14 1.33D-09 XBig12= 3.19D-01 1.17D-01.
 AX will form    69 AO Fock derivatives at one time.
     69 vectors produced by pass  1 Test12= 3.14D-14 1.33D-09 XBig12= 4.04D-02 3.18D-02.
     69 vectors produced by pass  2 Test12= 3.14D-14 1.33D-09 XBig12= 1.33D-03 1.03D-02.
     69 vectors produced by pass  3 Test12= 3.14D-14 1.33D-09 XBig12= 2.99D-05 1.31D-03.
     69 vectors produced by pass  4 Test12= 3.14D-14 1.33D-09 XBig12= 4.83D-07 1.22D-04.
     69 vectors produced by pass  5 Test12= 3.14D-14 1.33D-09 XBig12= 6.16D-09 7.89D-06.
     68 vectors produced by pass  6 Test12= 3.14D-14 1.33D-09 XBig12= 4.42D-11 4.23D-07.
     31 vectors produced by pass  7 Test12= 3.14D-14 1.33D-09 XBig12= 2.58D-13 3.77D-08.
      4 vectors produced by pass  8 Test12= 3.14D-14 1.33D-09 XBig12= 2.70D-15 3.17D-09.
      2 vectors produced by pass  9 Test12= 3.14D-14 1.33D-09 XBig12= 2.56D-16 1.49D-09.
 InvSVY:  IOpt=1 It=  1 EMax= 1.33D-15
 Solved reduced A of dimension   519 with    75 vectors.
 End of Minotr F.D. properties file   721 does not exist.
 End of Minotr F.D. properties file   722 does not exist.
 End of Minotr F.D. properties file   788 does not exist.

 **********************************************************************

            Population analysis using the SCF density.

 **********************************************************************

 Orbital symmetries:
 Alpha Orbitals:
       Occupied  (A) (A) (A) (A) (A) (A) (A) (A) (A) (A) (A) (A)
                 (A) (A) (A) (A) (A) (A) (A) (A) (A) (A) (A) (A)
                 (A) (A) (A) (A) (A) (A) (A) (A) (A) (A) (A) (A)
                 (A) (A) (A) (A) (A) (A) (A) (A) (A) (A) (A)
       Virtual   (A) (A) (A) (A) (A) (A) (A) (A) (A) (A) (A) (A)
                 (A) (A) (A) (A) (A) (A) (A) (A) (A) (A) (A) (A)
                 (A) (A) (A) (A) (A) (A) (A) (A) (A) (A) (A) (A)
                 (A) (A) (A) (A) (A) (A) (A) (A) (A) (A) (A) (A)
                 (A) (A) (A) (A) (A) (A) (A) (A) (A) (A) (A) (A)
                 (A) (A) (A) (A) (A) (A) (A) (A) (A) (A) (A) (A)
                 (A) (A) (A) (A) (A) (A) (A) (A) (A) (A) (A) (A)
                 (A) (A) (A) (A) (A) (A) (A) (A) (A) (A) (A) (A)
                 (A) (A) (A) (A) (A) (A) (A) (A) (A) (A) (A) (A)
                 (A) (A) (A) (A) (A) (A) (A) (A) (A) (A) (A) (A)
                 (A) (A) (A) (A) (A) (A) (A) (A) (A) (A) (A) (A)
                 (A) (A) (A) (A) (A) (A) (A) (A) (A) (A) (A) (A)
                 (A) (A) (A) (A) (A) (A) (A) (A) (A) (A) (A) (A)
                 (A) (A) (A) (A) (A) (A) (A) (A) (A) (A) (A) (A)
                 (A) (A) (A) (A) (A) (A) (A) (A) (A) (A) (A) (A)
                 (A) (A) (A) (A) (A) (A) (A) (A) (A) (A) (A) (A)
                 (A) (A) (A) (A) (A) (A) (A) (A) (A) (A) (A) (A)
                 (A) (A) (A) (A) (A) (A) (A) (A) (A) (A) (A) (A)
                 (A) (A) (A) (A) (A) (A) (A) (A) (A) (A) (A) (A)
                 (A) (A) (A) (A) (A) (A) (A) (A) (A) (A) (A) (A)
                 (A) (A) (A) (A) (A) (A) (A) (A) (A) (A) (A) (A)
                 (A)
 Beta  Orbitals:
       Occupied  (A) (A) (A) (A) (A) (A) (A) (A) (A) (A) (A) (A)
                 (A) (A) (A) (A) (A) (A) (A) (A) (A) (A) (A) (A)
                 (A) (A) (A) (A) (A) (A) (A) (A) (A) (A) (A) (A)
                 (A) (A) (A) (A) (A) (A) (A) (A) (A) (A)
       Virtual   (A) (A) (A) (A) (A) (A) (A) (A) (A) (A) (A) (A)
                 (A) (A) (A) (A) (A) (A) (A) (A) (A) (A) (A) (A)
                 (A) (A) (A) (A) (A) (A) (A) (A) (A) (A) (A) (A)
                 (A) (A) (A) (A) (A) (A) (A) (A) (A) (A) (A) (A)
                 (A) (A) (A) (A) (A) (A) (A) (A) (A) (A) (A) (A)
                 (A) (A) (A) (A) (A) (A) (A) (A) (A) (A) (A) (A)
                 (A) (A) (A) (A) (A) (A) (A) (A) (A) (A) (A) (A)
                 (A) (A) (A) (A) (A) (A) (A) (A) (A) (A) (A) (A)
                 (A) (A) (A) (A) (A) (A) (A) (A) (A) (A) (A) (A)
                 (A) (A) (A) (A) (A) (A) (A) (A) (A) (A) (A) (A)
                 (A) (A) (A) (A) (A) (A) (A) (A) (A) (A) (A) (A)
                 (A) (A) (A) (A) (A) (A) (A) (A) (A) (A) (A) (A)
                 (A) (A) (A) (A) (A) (A) (A) (A) (A) (A) (A) (A)
                 (A) (A) (A) (A) (A) (A) (A) (A) (A) (A) (A) (A)
                 (A) (A) (A) (A) (A) (A) (A) (A) (A) (A) (A) (A)
                 (A) (A) (A) (A) (A) (A) (A) (A) (A) (A) (A) (A)
                 (A) (A) (A) (A) (A) (A) (A) (A) (A) (A) (A) (A)
                 (A) (A) (A) (A) (A) (A) (A) (A) (A) (A) (A) (A)
                 (A) (A) (A) (A) (A) (A) (A) (A) (A) (A) (A) (A)
                 (A) (A) (A) (A) (A) (A) (A) (A) (A) (A) (A) (A)
                 (A) (A) (A) (A) (A) (A) (A) (A) (A) (A) (A) (A)
                 (A) (A)
 The electronic state is 2-A.
 Alpha  occ. eigenvalues --  -19.76377 -19.75490 -10.56169 -10.55935 -10.55831
 Alpha  occ. eigenvalues --  -10.55338 -10.55335 -10.55319 -10.55246 -10.55183
 Alpha  occ. eigenvalues --  -10.55104 -10.55025 -10.53737  -1.30436  -1.01409
 Alpha  occ. eigenvalues --   -0.98446  -0.93373  -0.87847  -0.85967  -0.82181
 Alpha  occ. eigenvalues --   -0.77990  -0.70621  -0.68192  -0.67956  -0.64283
 Alpha  occ. eigenvalues --   -0.59594  -0.58973  -0.58065  -0.55934  -0.55665
 Alpha  occ. eigenvalues --   -0.51879  -0.51251  -0.49001  -0.48094  -0.47837
 Alpha  occ. eigenvalues --   -0.46275  -0.45353  -0.45115  -0.42349  -0.40773
 Alpha  occ. eigenvalues --   -0.40284  -0.39440  -0.38509  -0.37011  -0.34152
 Alpha  occ. eigenvalues --   -0.28622  -0.26054
 Alpha virt. eigenvalues --   -0.01018   0.01508   0.01799   0.02266   0.02653
 Alpha virt. eigenvalues --    0.03272   0.03843   0.04148   0.05309   0.05845
 Alpha virt. eigenvalues --    0.06560   0.06870   0.07838   0.08083   0.08435
 Alpha virt. eigenvalues --    0.09180   0.09688   0.10502   0.11172   0.12494
 Alpha virt. eigenvalues --    0.13202   0.13323   0.13846   0.14478   0.14788
 Alpha virt. eigenvalues --    0.15338   0.15415   0.16525   0.17674   0.17791
 Alpha virt. eigenvalues --    0.18145   0.18537   0.19181   0.19746   0.20265
 Alpha virt. eigenvalues --    0.20573   0.21236   0.21660   0.21850   0.22409
 Alpha virt. eigenvalues --    0.22994   0.23121   0.23439   0.23958   0.25380
 Alpha virt. eigenvalues --    0.25898   0.26272   0.26669   0.26841   0.27223
 Alpha virt. eigenvalues --    0.27755   0.28198   0.29321   0.29699   0.30098
 Alpha virt. eigenvalues --    0.30951   0.31406   0.31703   0.31810   0.32833
 Alpha virt. eigenvalues --    0.33203   0.34205   0.35337   0.36083   0.36306
 Alpha virt. eigenvalues --    0.38247   0.39386   0.40525   0.40936   0.41346
 Alpha virt. eigenvalues --    0.42135   0.44032   0.47335   0.49020   0.50183
 Alpha virt. eigenvalues --    0.58641   0.59519   0.63799   0.69900   0.71140
 Alpha virt. eigenvalues --    0.71504   0.72365   0.73902   0.74659   0.76420
 Alpha virt. eigenvalues --    0.77478   0.77669   0.78349   0.78785   0.79620
 Alpha virt. eigenvalues --    0.81363   0.81729   0.82461   0.82827   0.83314
 Alpha virt. eigenvalues --    0.84092   0.85244   0.86213   0.87997   0.89178
 Alpha virt. eigenvalues --    0.92879   0.94261   0.94445   0.96293   0.97544
 Alpha virt. eigenvalues --    0.98850   1.00188   1.02061   1.02703   1.05842
 Alpha virt. eigenvalues --    1.06630   1.10084   1.10752   1.11740   1.12859
 Alpha virt. eigenvalues --    1.13127   1.14971   1.15952   1.17323   1.18709
 Alpha virt. eigenvalues --    1.19807   1.20839   1.21894   1.23843   1.24375
 Alpha virt. eigenvalues --    1.25373   1.27392   1.28811   1.29618   1.29914
 Alpha virt. eigenvalues --    1.31143   1.32477   1.32725   1.35940   1.37437
 Alpha virt. eigenvalues --    1.39836   1.41325   1.41817   1.44632   1.46792
 Alpha virt. eigenvalues --    1.47462   1.47998   1.49334   1.50238   1.51022
 Alpha virt. eigenvalues --    1.52184   1.53103   1.57075   1.60389   1.61310
 Alpha virt. eigenvalues --    1.67820   1.72985   1.78424   1.79382   1.82435
 Alpha virt. eigenvalues --    1.85137   1.85343   1.86739   1.87024   1.91044
 Alpha virt. eigenvalues --    1.93550   1.93896   1.95221   1.96138   1.98479
 Alpha virt. eigenvalues --    1.99307   1.99950   2.00911   2.05384   2.06020
 Alpha virt. eigenvalues --    2.06802   2.08401   2.09038   2.09702   2.12427
 Alpha virt. eigenvalues --    2.14243   2.16242   2.18039   2.19538   2.24280
 Alpha virt. eigenvalues --    2.25381   2.27742   2.29961   2.31410   2.32895
 Alpha virt. eigenvalues --    2.33736   2.36274   2.37747   2.41396   2.41700
 Alpha virt. eigenvalues --    2.43401   2.44253   2.44611   2.46137   2.46969
 Alpha virt. eigenvalues --    2.47747   2.49485   2.51739   2.52866   2.56240
 Alpha virt. eigenvalues --    2.56916   2.60964   2.61135   2.63058   2.63249
 Alpha virt. eigenvalues --    2.64134   2.64561   2.65753   2.67471   2.73515
 Alpha virt. eigenvalues --    2.73607   2.74957   2.76331   2.78098   2.80057
 Alpha virt. eigenvalues --    2.85011   2.86473   2.88853   2.90063   2.90086
 Alpha virt. eigenvalues --    2.93089   3.01207   3.05161   3.11578   3.12201
 Alpha virt. eigenvalues --    3.16938   3.20560   3.25384   3.27296   3.29079
 Alpha virt. eigenvalues --    3.30296   3.36494   3.40123   3.41064   3.49199
 Alpha virt. eigenvalues --    3.50952   3.55444   3.59581   3.76952   3.90388
 Alpha virt. eigenvalues --    4.03777   4.27916   4.30845   4.34781   4.36918
 Alpha virt. eigenvalues --    4.39097   4.42439   4.47721   4.51148   4.57303
 Alpha virt. eigenvalues --    4.66649   4.75107   4.96767
  Beta  occ. eigenvalues --  -19.75859 -19.73955 -10.56182 -10.55941 -10.55822
  Beta  occ. eigenvalues --  -10.55342 -10.55337 -10.55321 -10.55243 -10.55177
  Beta  occ. eigenvalues --  -10.55096 -10.54997 -10.53629  -1.27472  -0.98432
  Beta  occ. eigenvalues --   -0.96784  -0.93300  -0.87782  -0.85844  -0.82142
  Beta  occ. eigenvalues --   -0.77691  -0.70592  -0.68118  -0.67858  -0.62787
  Beta  occ. eigenvalues --   -0.59003  -0.58182  -0.56016  -0.54474  -0.51846
  Beta  occ. eigenvalues --   -0.51211  -0.50687  -0.48958  -0.48063  -0.46864
  Beta  occ. eigenvalues --   -0.46163  -0.45186  -0.43611  -0.42260  -0.39484
  Beta  occ. eigenvalues --   -0.38528  -0.38367  -0.37170  -0.34151  -0.28759
  Beta  occ. eigenvalues --   -0.26196
  Beta virt. eigenvalues --   -0.09904  -0.00887   0.01637   0.01916   0.02287
  Beta virt. eigenvalues --    0.02741   0.03462   0.03909   0.04254   0.05510
  Beta virt. eigenvalues --    0.05929   0.06740   0.07119   0.07908   0.08219
  Beta virt. eigenvalues --    0.08475   0.09305   0.09762   0.10683   0.11353
  Beta virt. eigenvalues --    0.12643   0.13250   0.13422   0.14040   0.14513
  Beta virt. eigenvalues --    0.14962   0.15391   0.15504   0.16762   0.17779
  Beta virt. eigenvalues --    0.17968   0.18422   0.18581   0.19265   0.20025
  Beta virt. eigenvalues --    0.20471   0.20713   0.21287   0.21691   0.21896
  Beta virt. eigenvalues --    0.22477   0.23119   0.23240   0.23495   0.24055
  Beta virt. eigenvalues --    0.25463   0.26100   0.26368   0.26792   0.26960
  Beta virt. eigenvalues --    0.27459   0.27857   0.28317   0.29479   0.29820
  Beta virt. eigenvalues --    0.30160   0.31040   0.31549   0.31737   0.32157
  Beta virt. eigenvalues --    0.32890   0.33299   0.34256   0.35414   0.36141
  Beta virt. eigenvalues --    0.36448   0.38278   0.39437   0.40633   0.41020
  Beta virt. eigenvalues --    0.41526   0.42333   0.44213   0.47562   0.49210
  Beta virt. eigenvalues --    0.50238   0.58677   0.59558   0.63828   0.69943
  Beta virt. eigenvalues --    0.71172   0.71553   0.72411   0.74245   0.74750
  Beta virt. eigenvalues --    0.76513   0.77506   0.77793   0.78397   0.78844
  Beta virt. eigenvalues --    0.79678   0.81395   0.81782   0.82533   0.82902
  Beta virt. eigenvalues --    0.83407   0.84136   0.85257   0.86293   0.88087
  Beta virt. eigenvalues --    0.89280   0.92913   0.94340   0.94578   0.96329
  Beta virt. eigenvalues --    0.97596   0.98869   1.00285   1.02307   1.02858
  Beta virt. eigenvalues --    1.05876   1.06658   1.10463   1.10837   1.11836
  Beta virt. eigenvalues --    1.12985   1.13711   1.15741   1.16912   1.17618
  Beta virt. eigenvalues --    1.19189   1.20810   1.21050   1.22231   1.24421
  Beta virt. eigenvalues --    1.24709   1.25490   1.27668   1.29390   1.30011
  Beta virt. eigenvalues --    1.30407   1.31250   1.32882   1.35582   1.36256
  Beta virt. eigenvalues --    1.37674   1.39880   1.41405   1.41900   1.44703
  Beta virt. eigenvalues --    1.46834   1.47523   1.48125   1.49863   1.50295
  Beta virt. eigenvalues --    1.51273   1.52281   1.54755   1.57126   1.60478
  Beta virt. eigenvalues --    1.62165   1.68471   1.73654   1.78973   1.80618
  Beta virt. eigenvalues --    1.83140   1.85392   1.86670   1.87001   1.87324
  Beta virt. eigenvalues --    1.92123   1.93666   1.94156   1.95264   1.96218
  Beta virt. eigenvalues --    1.98525   1.99395   1.99988   2.00956   2.05466
  Beta virt. eigenvalues --    2.06041   2.06919   2.08445   2.09248   2.09829
  Beta virt. eigenvalues --    2.13147   2.14431   2.16531   2.18576   2.19696
  Beta virt. eigenvalues --    2.24352   2.25496   2.27820   2.30058   2.31723
  Beta virt. eigenvalues --    2.33082   2.33788   2.36700   2.38215   2.41708
  Beta virt. eigenvalues --    2.41725   2.43453   2.44383   2.44756   2.46426
  Beta virt. eigenvalues --    2.47890   2.48182   2.49982   2.51835   2.52932
  Beta virt. eigenvalues --    2.56309   2.56997   2.61001   2.61212   2.63103
  Beta virt. eigenvalues --    2.63334   2.64188   2.64767   2.65816   2.67496
  Beta virt. eigenvalues --    2.73605   2.73646   2.75068   2.76401   2.78144
  Beta virt. eigenvalues --    2.80126   2.85095   2.86577   2.88937   2.90178
  Beta virt. eigenvalues --    2.90226   2.93295   3.01301   3.05226   3.12262
  Beta virt. eigenvalues --    3.12302   3.16987   3.20606   3.25436   3.27316
  Beta virt. eigenvalues --    3.29190   3.30502   3.36542   3.40201   3.40990
  Beta virt. eigenvalues --    3.49301   3.50971   3.55735   3.59056   3.77017
  Beta virt. eigenvalues --    3.90436   4.04956   4.29130   4.31060   4.34838
  Beta virt. eigenvalues --    4.36963   4.39111   4.42533   4.47792   4.51169
  Beta virt. eigenvalues --    4.57376   4.66943   4.75377   4.96837
          Condensed to atoms (all electrons):
               1          2          3          4          5          6
     1  C    8.522087   0.412361  -0.106604  -0.975100   0.085650  -0.032020
     2  C    0.412361   7.886229  -2.239457   1.358778   0.073597  -0.608777
     3  C   -0.106604  -2.239457   8.971250  -0.802335   0.084653   0.351899
     4  C   -0.975100   1.358778  -0.802335   9.869888   0.114204  -2.299082
     5  H    0.085650   0.073597   0.084653   0.114204   0.541387  -0.020612
     6  C   -0.032020  -0.608777   0.351899  -2.299082  -0.020612  10.770535
     7  H   -0.003992   0.216758   0.060882  -0.053705  -0.000159   0.052623
     8  C    0.372172  -1.157219  -0.121135  -3.636836  -0.006506   1.592427
     9  H    0.009164  -0.029860   0.037685   0.170228  -0.004035   0.032991
    10  C   -0.751647   0.631031  -0.218811   1.637102   0.002298  -3.001162
    11  C   -0.213767  -0.449859   0.088935  -0.074554  -0.000818   0.139028
    12  H    0.020476   0.011196   0.007345  -0.010752   0.000000   0.036516
    13  C    0.046735  -0.003649  -0.286437  -0.364746   0.002686   0.655052
    14  H    0.001177   0.001757  -0.000680   0.001632  -0.000000   0.023942
    15  C   -0.314489   0.518068   0.113778   1.480912   0.009754  -1.840639
    16  H    0.007288  -0.004728   0.017295  -0.035733  -0.000009   0.028797
    17  H    0.000995  -0.000180   0.000734  -0.004743  -0.000000   0.010550
    18  C   -0.814774  -0.556314   0.268657  -0.320862  -0.032888   0.137019
    19  H   -0.175085  -0.086476   0.065709  -0.000547   0.000045  -0.012353
    20  H   -0.129322   0.055481  -0.021518  -0.010187   0.000096   0.039404
    21  H   -0.053785   0.037628  -0.028359   0.035872   0.001992  -0.008435
    22  O    0.145749  -0.034798  -0.002541  -0.012161   0.000166   0.000322
    23  O    0.014383  -0.095120   0.060712  -0.014482  -0.000074  -0.007874
    24  H   -0.012900   0.022156  -0.011890   0.000130  -0.000000   0.004109
               7          8          9         10         11         12
     1  C   -0.003992   0.372172   0.009164  -0.751647  -0.213767   0.020476
     2  C    0.216758  -1.157219  -0.029860   0.631031  -0.449859   0.011196
     3  C    0.060882  -0.121135   0.037685  -0.218811   0.088935   0.007345
     4  C   -0.053705  -3.636836   0.170228   1.637102  -0.074554  -0.010752
     5  H   -0.000159  -0.006506  -0.004035   0.002298  -0.000818   0.000000
     6  C    0.052623   1.592427   0.032991  -3.001162   0.139028   0.036516
     7  H    0.560363  -0.012090   0.000018   0.024782   0.025374   0.003254
     8  C   -0.012090  13.252947   0.112000  -1.838904   0.273372   0.004048
     9  H    0.000018   0.112000   0.542283  -0.008055   0.003576   0.000001
    10  C    0.024782  -1.838904  -0.008055   8.666062   0.175921   0.242339
    11  C    0.025374   0.273372   0.003576   0.175921   5.863362   0.008129
    12  H    0.003254   0.004048   0.000001   0.242339   0.008129   0.547024
    13  C    0.000939   0.226573   0.007319  -0.840915   0.527996   0.013658
    14  H   -0.000008  -0.001124   0.000000   0.011255   0.253207  -0.004340
    15  C   -0.001433  -3.647379  -0.029914   1.810102  -0.416314  -0.030834
    16  H    0.000001   0.089156   0.003072  -0.037363   0.010033   0.000017
    17  H    0.000000   0.037164  -0.000008   0.005289   0.008483  -0.000157
    18  C   -0.014481   0.321679   0.001832  -0.265122   0.003590   0.003062
    19  H    0.000148  -0.000720  -0.000001  -0.001942   0.000138  -0.000000
    20  H    0.002858  -0.002571   0.000002   0.001742   0.000339   0.000000
    21  H    0.000053  -0.002554  -0.000005   0.000775  -0.000028   0.000000
    22  O   -0.000089   0.001784  -0.000004   0.001097   0.000552  -0.000000
    23  O    0.000286   0.007633   0.000001  -0.007059  -0.000400   0.000000
    24  H   -0.000010  -0.000686  -0.000000   0.000909   0.000024   0.000000
              13         14         15         16         17         18
     1  C    0.046735   0.001177  -0.314489   0.007288   0.000995  -0.814774
     2  C   -0.003649   0.001757   0.518068  -0.004728  -0.000180  -0.556314
     3  C   -0.286437  -0.000680   0.113778   0.017295   0.000734   0.268657
     4  C   -0.364746   0.001632   1.480912  -0.035733  -0.004743  -0.320862
     5  H    0.002686  -0.000000   0.009754  -0.000009  -0.000000  -0.032888
     6  C    0.655052   0.023942  -1.840639   0.028797   0.010550   0.137019
     7  H    0.000939  -0.000008  -0.001433   0.000001   0.000000  -0.014481
     8  C    0.226573  -0.001124  -3.647379   0.089156   0.037164   0.321679
     9  H    0.007319   0.000000  -0.029914   0.003072  -0.000008   0.001832
    10  C   -0.840915   0.011255   1.810102  -0.037363   0.005289  -0.265122
    11  C    0.527996   0.253207  -0.416314   0.010033   0.008483   0.003590
    12  H    0.013658  -0.004340  -0.030834   0.000017  -0.000157   0.003062
    13  C    5.953452   0.018198  -0.030217   0.006387   0.246955  -0.000316
    14  H    0.018198   0.534681   0.012761  -0.000155  -0.004154   0.000075
    15  C   -0.030217   0.012761   8.521008   0.224355   0.017306  -0.174957
    16  H    0.006387  -0.000155   0.224355   0.544245  -0.004294   0.000539
    17  H    0.246955  -0.004154   0.017306  -0.004294   0.533715   0.000048
    18  C   -0.000316   0.000075  -0.174957   0.000539   0.000048   6.605430
    19  H   -0.000195   0.000000   0.000097   0.000000   0.000000   0.543421
    20  H   -0.000009  -0.000000  -0.001135  -0.000000  -0.000000   0.428857
    21  H    0.000094   0.000000   0.000729   0.000000   0.000000   0.379189
    22  O    0.000004  -0.000000  -0.001633  -0.000000   0.000000  -0.112413
    23  O   -0.000234  -0.000000   0.001422   0.000000  -0.000000   0.058128
    24  H    0.000009  -0.000000  -0.000067   0.000000  -0.000000  -0.003131
              19         20         21         22         23         24
     1  C   -0.175085  -0.129322  -0.053785   0.145749   0.014383  -0.012900
     2  C   -0.086476   0.055481   0.037628  -0.034798  -0.095120   0.022156
     3  C    0.065709  -0.021518  -0.028359  -0.002541   0.060712  -0.011890
     4  C   -0.000547  -0.010187   0.035872  -0.012161  -0.014482   0.000130
     5  H    0.000045   0.000096   0.001992   0.000166  -0.000074  -0.000000
     6  C   -0.012353   0.039404  -0.008435   0.000322  -0.007874   0.004109
     7  H    0.000148   0.002858   0.000053  -0.000089   0.000286  -0.000010
     8  C   -0.000720  -0.002571  -0.002554   0.001784   0.007633  -0.000686
     9  H   -0.000001   0.000002  -0.000005  -0.000004   0.000001  -0.000000
    10  C   -0.001942   0.001742   0.000775   0.001097  -0.007059   0.000909
    11  C    0.000138   0.000339  -0.000028   0.000552  -0.000400   0.000024
    12  H   -0.000000   0.000000   0.000000  -0.000000   0.000000   0.000000
    13  C   -0.000195  -0.000009   0.000094   0.000004  -0.000234   0.000009
    14  H    0.000000  -0.000000   0.000000  -0.000000  -0.000000  -0.000000
    15  C    0.000097  -0.001135   0.000729  -0.001633   0.001422  -0.000067
    16  H    0.000000  -0.000000   0.000000  -0.000000   0.000000   0.000000
    17  H    0.000000  -0.000000   0.000000   0.000000  -0.000000  -0.000000
    18  C    0.543421   0.428857   0.379189  -0.112413   0.058128  -0.003131
    19  H    0.608026  -0.035761  -0.041078  -0.047537  -0.027563   0.000460
    20  H   -0.035761   0.523718  -0.017967   0.002018   0.000257   0.000079
    21  H   -0.041078  -0.017967   0.520937   0.004098   0.000747  -0.000015
    22  O   -0.047537   0.002018   0.004098   8.032875   0.193413  -0.042633
    23  O   -0.027563   0.000257   0.000747   0.193413   7.807941   0.262684
    24  H    0.000460   0.000079  -0.000015  -0.042633   0.262684   0.398276
          Atomic-Atomic Spin Densities.
               1          2          3          4          5          6
     1  C   -0.170692  -0.074543   0.148375   0.060862   0.000926  -0.057344
     2  C   -0.074543  -0.079384   0.124213   0.004781  -0.000115  -0.015148
     3  C    0.148375   0.124213  -0.085873  -0.089040   0.000571   0.003996
     4  C    0.060862   0.004781  -0.089040  -0.065832  -0.001252   0.064907
     5  H    0.000926  -0.000115   0.000571  -0.001252  -0.000756   0.000415
     6  C   -0.057344  -0.015148   0.003996   0.064907   0.000415  -0.053342
     7  H   -0.001481   0.002562  -0.001525   0.000319   0.000000   0.000445
     8  C    0.064163   0.030478  -0.037387   0.043567  -0.000266   0.014565
     9  H    0.000595   0.000135   0.000336   0.000128  -0.000002  -0.000025
    10  C    0.016715  -0.017521   0.016088  -0.032248   0.000027   0.036399
    11  C   -0.002746   0.007350  -0.009170   0.012698   0.000003  -0.012314
    12  H    0.000111   0.000176   0.000015  -0.000057  -0.000000   0.000069
    13  C    0.000256   0.003126  -0.007703   0.000781  -0.000019   0.006480
    14  H   -0.000003  -0.000022   0.000002   0.000016   0.000000  -0.000090
    15  C    0.008772   0.008143   0.007849   0.019698  -0.000063  -0.028919
    16  H    0.000035   0.000012  -0.000130  -0.000408   0.000000   0.000341
    17  H   -0.000001  -0.000005  -0.000002   0.000038  -0.000000  -0.000165
    18  C   -0.042826   0.027983  -0.039251  -0.034092  -0.000054   0.028989
    19  H    0.030838   0.001888  -0.018349  -0.007333  -0.000049   0.002306
    20  H    0.004276  -0.005988   0.006626   0.001519  -0.000003  -0.002826
    21  H    0.001054   0.005213  -0.001794   0.002409  -0.000032   0.000149
    22  O    0.024787   0.011444  -0.001760   0.006002   0.000006  -0.003810
    23  O   -0.029577   0.007555  -0.006611  -0.002232   0.000004   0.007583
    24  H    0.000848  -0.000767   0.000559   0.000028  -0.000000  -0.000105
               7          8          9         10         11         12
     1  C   -0.001481   0.064163   0.000595   0.016715  -0.002746   0.000111
     2  C    0.002562   0.030478   0.000135  -0.017521   0.007350   0.000176
     3  C   -0.001525  -0.037387   0.000336   0.016088  -0.009170   0.000015
     4  C    0.000319   0.043567   0.000128  -0.032248   0.012698  -0.000057
     5  H    0.000000  -0.000266  -0.000002   0.000027   0.000003  -0.000000
     6  C    0.000445   0.014565  -0.000025   0.036399  -0.012314   0.000069
     7  H   -0.002012   0.000198  -0.000000  -0.000485  -0.000365  -0.000007
     8  C    0.000198  -0.057067  -0.000961  -0.011505   0.001693  -0.000191
     9  H   -0.000000  -0.000961   0.000391   0.000042  -0.000010  -0.000000
    10  C   -0.000485  -0.011505   0.000042  -0.017652   0.009855   0.000037
    11  C   -0.000365   0.001693  -0.000010   0.009855  -0.012431  -0.000193
    12  H   -0.000007  -0.000191  -0.000000   0.000037  -0.000193  -0.000526
    13  C    0.000014   0.001895  -0.000044  -0.014791   0.005558  -0.000001
    14  H   -0.000000   0.000084   0.000000   0.000134  -0.000130  -0.000001
    15  C   -0.000128  -0.016446  -0.000234   0.016979  -0.004375   0.000072
    16  H    0.000000   0.000298   0.000003  -0.000116  -0.000035  -0.000000
    17  H   -0.000000   0.000086   0.000000  -0.000037   0.000062   0.000000
    18  C    0.000647  -0.013696   0.000049   0.007067  -0.003491   0.000000
    19  H   -0.000047  -0.000798  -0.000000   0.000343  -0.000095  -0.000000
    20  H    0.000005   0.000517  -0.000000  -0.000227   0.000026  -0.000000
    21  H   -0.000001  -0.000321  -0.000000   0.000131   0.000016   0.000000
    22  O   -0.000012  -0.000687  -0.000001   0.000932   0.000094  -0.000000
    23  O    0.000023   0.000206   0.000000  -0.000468  -0.000278   0.000000
    24  H    0.000001   0.000027   0.000000  -0.000026   0.000001  -0.000000
              13         14         15         16         17         18
     1  C    0.000256  -0.000003   0.008772   0.000035  -0.000001  -0.042826
     2  C    0.003126  -0.000022   0.008143   0.000012  -0.000005   0.027983
     3  C   -0.007703   0.000002   0.007849  -0.000130  -0.000002  -0.039251
     4  C    0.000781   0.000016   0.019698  -0.000408   0.000038  -0.034092
     5  H   -0.000019   0.000000  -0.000063   0.000000  -0.000000  -0.000054
     6  C    0.006480  -0.000090  -0.028919   0.000341  -0.000165   0.028989
     7  H    0.000014  -0.000000  -0.000128   0.000000  -0.000000   0.000647
     8  C    0.001895   0.000084  -0.016446   0.000298   0.000086  -0.013696
     9  H   -0.000044   0.000000  -0.000234   0.000003   0.000000   0.000049
    10  C   -0.014791   0.000134   0.016979  -0.000116  -0.000037   0.007067
    11  C    0.005558  -0.000130  -0.004375  -0.000035   0.000062  -0.003491
    12  H   -0.000001  -0.000001   0.000072  -0.000000   0.000000   0.000000
    13  C    0.026877  -0.000028  -0.006507   0.000155   0.000133  -0.001251
    14  H   -0.000028   0.000252   0.000026  -0.000000  -0.000000   0.000000
    15  C   -0.006507   0.000026  -0.015219  -0.000158  -0.000091   0.001076
    16  H    0.000155  -0.000000  -0.000158   0.000280  -0.000001   0.000006
    17  H    0.000133  -0.000000  -0.000091  -0.000001  -0.000650   0.000000
    18  C   -0.001251   0.000000   0.001076   0.000006   0.000000   0.209589
    19  H   -0.000009   0.000000  -0.000025   0.000000  -0.000000   0.025937
    20  H    0.000010  -0.000000   0.000054  -0.000000  -0.000000  -0.008125
    21  H    0.000006  -0.000000  -0.000016  -0.000000   0.000000  -0.011359
    22  O    0.000058  -0.000000  -0.000049   0.000000   0.000000  -0.062924
    23  O   -0.000106   0.000000  -0.000063   0.000000   0.000000   0.031284
    24  H   -0.000000  -0.000000   0.000005  -0.000000  -0.000000  -0.000691
              19         20         21         22         23         24
     1  C    0.030838   0.004276   0.001054   0.024787  -0.029577   0.000848
     2  C    0.001888  -0.005988   0.005213   0.011444   0.007555  -0.000767
     3  C   -0.018349   0.006626  -0.001794  -0.001760  -0.006611   0.000559
     4  C   -0.007333   0.001519   0.002409   0.006002  -0.002232   0.000028
     5  H   -0.000049  -0.000003  -0.000032   0.000006   0.000004  -0.000000
     6  C    0.002306  -0.002826   0.000149  -0.003810   0.007583  -0.000105
     7  H   -0.000047   0.000005  -0.000001  -0.000012   0.000023   0.000001
     8  C   -0.000798   0.000517  -0.000321  -0.000687   0.000206   0.000027
     9  H   -0.000000  -0.000000  -0.000000  -0.000001   0.000000   0.000000
    10  C    0.000343  -0.000227   0.000131   0.000932  -0.000468  -0.000026
    11  C   -0.000095   0.000026   0.000016   0.000094  -0.000278   0.000001
    12  H   -0.000000  -0.000000   0.000000  -0.000000   0.000000  -0.000000
    13  C   -0.000009   0.000010   0.000006   0.000058  -0.000106  -0.000000
    14  H    0.000000  -0.000000  -0.000000  -0.000000   0.000000  -0.000000
    15  C   -0.000025   0.000054  -0.000016  -0.000049  -0.000063   0.000005
    16  H    0.000000  -0.000000  -0.000000   0.000000   0.000000  -0.000000
    17  H   -0.000000  -0.000000   0.000000   0.000000   0.000000  -0.000000
    18  C    0.025937  -0.008125  -0.011359  -0.062924   0.031284  -0.000691
    19  H   -0.054447   0.001635   0.002095  -0.033081   0.013640  -0.000296
    20  H    0.001635  -0.003635   0.000628   0.002837  -0.001148   0.000005
    21  H    0.002095   0.000628  -0.004072   0.002311  -0.000603   0.000003
    22  O   -0.033081   0.002837   0.002311   0.874969  -0.101692   0.003230
    23  O    0.013640  -0.001148  -0.000603  -0.101692   0.261016  -0.001003
    24  H   -0.000296   0.000005   0.000003   0.003230  -0.001003  -0.008260
 Mulliken charges and spin densities:
               1          2
     1  C   -0.054752  -0.016599
     2  C    0.041396   0.041570
     3  C   -0.289769   0.010033
     4  C   -0.052921  -0.014741
     5  H    0.148571  -0.000659
     6  C   -0.044261  -0.007442
     7  H    0.137627  -0.001848
     8  C    0.136768   0.018452
     9  H    0.151710   0.000404
    10  C   -0.239725   0.009674
    11  C   -0.226318  -0.008277
    12  H    0.149018  -0.000494
    13  C   -0.179338   0.014889
    14  H    0.151777   0.000240
    15  C   -0.221279  -0.009619
    16  H    0.151097   0.000283
    17  H    0.152297  -0.000632
    18  C   -0.456267   0.114870
    19  H    0.211213  -0.035848
    20  H    0.163619  -0.003815
    21  H    0.170111  -0.004181
    22  O   -0.128270   0.722652
    23  O   -0.254801   0.177531
    24  H    0.382495  -0.006440
 Sum of Mulliken charges =  -0.00000   1.00000
 Mulliken charges and spin densities with hydrogens summed into heavy atoms:
               1          2
     1  C   -0.054752  -0.016599
     2  C    0.179023   0.039721
     3  C   -0.141197   0.009374
     4  C    0.098789  -0.014337
     6  C   -0.044261  -0.007442
     8  C    0.136768   0.018452
    10  C   -0.090707   0.009179
    11  C   -0.074540  -0.008037
    13  C   -0.027041   0.014257
    15  C   -0.070182  -0.009336
    18  C    0.088676   0.071026
    22  O   -0.128270   0.722652
    23  O    0.127694   0.171091
 APT charges:
               1
     1  C    0.105020
     2  C   -0.185261
     3  C   -0.478438
     4  C   -0.255205
     5  H    0.585139
     6  C   -1.093648
     7  H    0.433948
     8  C   -0.338307
     9  H    0.603927
    10  C   -0.698124
    11  C   -0.368858
    12  H    0.462469
    13  C   -0.370092
    14  H    0.818557
    15  C   -0.708760
    16  H    0.615653
    17  H    0.895981
    18  C   -1.468847
    19  H    0.530999
    20  H    0.458715
    21  H    0.593277
    22  O   -0.221829
    23  O   -0.948751
    24  H    1.032434
 Sum of APT charges =  -0.00000
 APT charges with hydrogens summed into heavy atoms:
               1
     1  C    0.105020
     2  C    0.248688
     3  C    0.106700
     4  C    0.348722
     6  C   -1.093648
     8  C   -0.338307
    10  C   -0.235655
    11  C    0.449699
    13  C    0.525889
    15  C   -0.093107
    18  C    0.114145
    22  O   -0.221829
    23  O    0.083683
 Electronic spatial extent (au):  <R**2>=           3074.6218
 Charge=             -0.0000 electrons
 Dipole moment (field-independent basis, Debye):
    X=              1.0842    Y=             -1.6814    Z=              0.4673  Tot=              2.0545
 Quadrupole moment (field-independent basis, Debye-Ang):
   XX=            -66.4687   YY=            -65.7903   ZZ=            -81.3193
   XY=             -7.2988   XZ=              4.7776   YZ=             -3.0647
 Traceless Quadrupole moment (field-independent basis, Debye-Ang):
   XX=              4.7241   YY=              5.4024   ZZ=            -10.1265
   XY=             -7.2988   XZ=              4.7776   YZ=             -3.0647
 Octapole moment (field-independent basis, Debye-Ang**2):
  XXX=             46.7214  YYY=            -19.6495  ZZZ=             -8.0161  XYY=             34.6260
  XXY=            -46.8276  XXZ=            -11.2323  XZZ=             15.0501  YZZ=             -4.1798
  YYZ=             -7.1681  XYZ=             11.8733
 Hexadecapole moment (field-independent basis, Debye-Ang**3):
 XXXX=          -2744.6707 YYYY=           -634.0091 ZZZZ=           -375.9892 XXXY=           -184.2981
 XXXZ=             13.5244 YYYX=            -78.6281 YYYZ=             -7.2349 ZZZX=            -26.9514
 ZZZY=              0.6837 XXYY=           -465.8967 XXZZ=           -577.6083 YYZZ=           -175.1355
 XXYZ=             19.9568 YYXZ=            -23.0144 ZZXY=            -22.5664
 N-N= 7.141798649565D+02 E-N=-2.768062788317D+03  KE= 5.711578923754D+02
  Exact polarizability:   0.000   0.000   0.000   0.000   0.000   0.000
 Approx polarizability: 245.192  25.178 190.327  21.828 -16.857 126.088
                          Isotropic Fermi Contact Couplings
        Atom                 a.u.       MegaHertz       Gauss      10(-4) cm-1
     1  C(13)             -0.00411      -4.61633      -1.64722      -1.53984
     2  C(13)              0.00632       7.09938       2.53323       2.36810
     3  C(13)              0.00222       2.49335       0.88969       0.83169
     4  C(13)             -0.00201      -2.26455      -0.80805      -0.75537
     5  H(1)              -0.00019      -0.85147      -0.30383      -0.28402
     6  C(13)             -0.00264      -2.97127      -1.06022      -0.99111
     7  H(1)              -0.00059      -2.62984      -0.93839      -0.87722
     8  C(13)              0.00265       2.98251       1.06423       0.99486
     9  H(1)               0.00012       0.55355       0.19752       0.18465
    10  C(13)              0.00178       2.00158       0.71421       0.66766
    11  C(13)             -0.00137      -1.54047      -0.54968      -0.51385
    12  H(1)              -0.00016      -0.71289      -0.25438      -0.23779
    13  C(13)              0.00213       2.39421       0.85431       0.79862
    14  H(1)               0.00007       0.32046       0.11435       0.10689
    15  C(13)             -0.00166      -1.86801      -0.66655      -0.62310
    16  H(1)               0.00009       0.38786       0.13840       0.12938
    17  H(1)              -0.00019      -0.85074      -0.30357      -0.28378
    18  C(13)              0.03234      36.35498      12.97236      12.12672
    19  H(1)              -0.00323     -14.44037      -5.15268      -4.81679
    20  H(1)              -0.00128      -5.70597      -2.03603      -1.90331
    21  H(1)              -0.00167      -7.46400      -2.66334      -2.48972
    22  O(17)              0.14812     -89.79248     -32.04019     -29.95155
    23  O(17)              0.04669     -28.30127     -10.09860      -9.44029
    24  H(1)              -0.00383     -17.13485      -6.11414      -5.71557
 --------------------------------------------------------
       Center         ----  Spin Dipole Couplings  ----
                      3XX-RR        3YY-RR        3ZZ-RR
 --------------------------------------------------------
     1   Atom        0.015401     -0.000023     -0.015378
     2   Atom       -0.011458     -0.011242      0.022699
     3   Atom       -0.002306     -0.003494      0.005799
     4   Atom        0.004180      0.001925     -0.006105
     5   Atom        0.000305      0.001743     -0.002048
     6   Atom        0.004654      0.000534     -0.005187
     7   Atom        0.000229      0.000457     -0.000686
     8   Atom       -0.003288     -0.004932      0.008219
     9   Atom        0.001036     -0.000197     -0.000839
    10   Atom       -0.001877     -0.003568      0.005446
    11   Atom        0.002495      0.000966     -0.003462
    12   Atom        0.000451      0.000079     -0.000530
    13   Atom       -0.003139     -0.004050      0.007188
    14   Atom        0.000574     -0.000264     -0.000310
    15   Atom        0.002989      0.001204     -0.004193
    16   Atom        0.000836     -0.000368     -0.000468
    17   Atom        0.001230     -0.001001     -0.000229
    18   Atom       -0.010640     -0.052123      0.062763
    19   Atom        0.014890     -0.038616      0.023726
    20   Atom       -0.006808     -0.001635      0.008443
    21   Atom       -0.005111      0.005171     -0.000059
    22   Atom        0.159429     -1.459874      1.300445
    23   Atom       -0.015197     -0.509980      0.525177
    24   Atom       -0.012489      0.029915     -0.017426
 --------------------------------------------------------
                        XY            XZ            YZ
 --------------------------------------------------------
     1   Atom       -0.001169      0.001408     -0.005576
     2   Atom       -0.005430     -0.014499      0.019217
     3   Atom       -0.003932     -0.004526      0.005023
     4   Atom        0.000307      0.003434     -0.003774
     5   Atom       -0.002334     -0.000749      0.000180
     6   Atom        0.001122      0.002503     -0.002832
     7   Atom        0.000007     -0.002006     -0.001877
     8   Atom       -0.002810     -0.005463      0.006263
     9   Atom       -0.000566      0.000140      0.000034
    10   Atom       -0.001176     -0.004320      0.003892
    11   Atom        0.000795      0.001984     -0.002260
    12   Atom        0.000353     -0.000394     -0.000480
    13   Atom       -0.002084     -0.004608      0.005595
    14   Atom       -0.000007      0.000103     -0.000118
    15   Atom        0.000907      0.002441     -0.002603
    16   Atom       -0.000076      0.000163      0.000031
    17   Atom       -0.000209      0.000418      0.000232
    18   Atom       -0.029353     -0.088082      0.044779
    19   Atom       -0.026319     -0.070505      0.030038
    20   Atom       -0.003330     -0.005056     -0.005990
    21   Atom        0.003150     -0.004188      0.009650
    22   Atom        0.074861     -2.101442     -0.074845
    23   Atom       -0.031522     -0.718647     -0.078598
    24   Atom       -0.028334      0.004992     -0.015779
 --------------------------------------------------------


 ---------------------------------------------------------------------------------
              Anisotropic Spin Dipole Couplings in Principal Axis System
 ---------------------------------------------------------------------------------

       Atom             a.u.   MegaHertz   Gauss  10(-4) cm-1        Axes

              Baa    -0.0172    -2.311    -0.824    -0.771 -0.0301  0.3064  0.9514
     1 C(13)  Bbb     0.0016     0.217     0.077     0.072  0.1111  0.9470 -0.3015
              Bcc     0.0156     2.094     0.747     0.698  0.9934 -0.0967  0.0626
 
              Baa    -0.0202    -2.705    -0.965    -0.902 -0.2405  0.8527 -0.4637
     2 C(13)  Bbb    -0.0162    -2.174    -0.776    -0.725  0.9206  0.3518  0.1694
              Bcc     0.0364     4.879     1.741     1.627 -0.3075  0.3862  0.8697
 
              Baa    -0.0070    -0.936    -0.334    -0.312  0.5702  0.8130 -0.1176
     3 C(13)  Bbb    -0.0036    -0.483    -0.172    -0.161  0.7114 -0.4172  0.5656
              Bcc     0.0106     1.419     0.506     0.473 -0.4108  0.4062  0.8162
 
              Baa    -0.0085    -1.137    -0.406    -0.379 -0.2543  0.3367  0.9066
     4 C(13)  Bbb     0.0030     0.401     0.143     0.134  0.4000  0.8901 -0.2184
              Bcc     0.0055     0.736     0.262     0.245  0.8805 -0.3071  0.3610
 
              Baa    -0.0024    -1.263    -0.451    -0.421  0.4242  0.2022  0.8827
     5 H(1)   Bbb    -0.0012    -0.620    -0.221    -0.207  0.6790  0.5739 -0.4577
              Bcc     0.0035     1.883     0.672     0.628 -0.5992  0.7936  0.1061
 
              Baa    -0.0070    -0.939    -0.335    -0.313 -0.2291  0.3724  0.8994
     6 C(13)  Bbb     0.0017     0.228     0.081     0.076 -0.0221  0.9217 -0.3872
              Bcc     0.0053     0.711     0.254     0.237  0.9732  0.1086  0.2029
 
              Baa    -0.0030    -1.584    -0.565    -0.528  0.4816  0.4204  0.7690
     7 H(1)   Bbb     0.0003     0.182     0.065     0.061 -0.6938  0.7189  0.0415
              Bcc     0.0026     1.401     0.500     0.467 -0.5354 -0.5536  0.6379
 
              Baa    -0.0076    -1.018    -0.363    -0.340  0.2480  0.9269 -0.2816
     8 C(13)  Bbb    -0.0054    -0.729    -0.260    -0.243  0.9028 -0.1157  0.4143
              Bcc     0.0130     1.747     0.623     0.583 -0.3514  0.3570  0.8655
 
              Baa    -0.0009    -0.459    -0.164    -0.153 -0.1170 -0.1498  0.9818
     9 H(1)   Bbb    -0.0004    -0.215    -0.077    -0.072  0.3446  0.9210  0.1816
              Bcc     0.0013     0.674     0.240     0.225  0.9314 -0.3595  0.0562
 
              Baa    -0.0051    -0.687    -0.245    -0.229 -0.2458  0.8726 -0.4220
    10 C(13)  Bbb    -0.0036    -0.489    -0.175    -0.163  0.8888  0.3766  0.2611
              Bcc     0.0088     1.176     0.420     0.392 -0.3868  0.3109  0.8682
 
              Baa    -0.0050    -0.674    -0.240    -0.225 -0.2736  0.3713  0.8873
    11 C(13)  Bbb     0.0019     0.257     0.092     0.086  0.0277  0.9251 -0.3786
              Bcc     0.0031     0.417     0.149     0.139  0.9615  0.0790  0.2634
 
              Baa    -0.0008    -0.439    -0.157    -0.146  0.1630  0.4130  0.8960
    12 H(1)   Bbb    -0.0001    -0.046    -0.016    -0.015 -0.6436  0.7329 -0.2207
              Bcc     0.0009     0.485     0.173     0.162  0.7478  0.5407 -0.3853
 
              Baa    -0.0064    -0.856    -0.305    -0.285  0.1020  0.9314 -0.3495
    13 C(13)  Bbb    -0.0049    -0.657    -0.234    -0.219  0.9381  0.0268  0.3453
              Bcc     0.0113     1.513     0.540     0.505 -0.3310  0.3631  0.8710
 
              Baa    -0.0004    -0.220    -0.079    -0.074 -0.0773  0.6156  0.7843
    14 H(1)   Bbb    -0.0002    -0.092    -0.033    -0.031  0.0918  0.7877 -0.6092
              Bcc     0.0006     0.313     0.112     0.104  0.9928 -0.0249  0.1174
 
              Baa    -0.0060    -0.805    -0.287    -0.268 -0.2783  0.3573  0.8916
    15 C(13)  Bbb     0.0023     0.302     0.108     0.101  0.0443  0.9320 -0.3597
              Bcc     0.0037     0.503     0.179     0.168  0.9595  0.0606  0.2752
 
              Baa    -0.0005    -0.267    -0.095    -0.089 -0.1320 -0.2976  0.9455
    16 H(1)   Bbb    -0.0004    -0.192    -0.069    -0.064  0.0195  0.9529  0.3026
              Bcc     0.0009     0.459     0.164     0.153  0.9911 -0.0584  0.1200
 
              Baa    -0.0011    -0.592    -0.211    -0.197  0.1397  0.9392 -0.3135
    17 H(1)   Bbb    -0.0002    -0.128    -0.046    -0.043 -0.2127  0.3377  0.9169
              Bcc     0.0014     0.720     0.257     0.240  0.9671 -0.0614  0.2469
 
              Baa    -0.0694    -9.318    -3.325    -3.108  0.7901 -0.1777  0.5866
    18 C(13)  Bbb    -0.0672    -9.022    -3.219    -3.009  0.3023  0.9455 -0.1208
              Bcc     0.1367    18.339     6.544     6.117 -0.5332  0.2728  0.8008
 
              Baa    -0.0522   -27.828    -9.930    -9.282  0.5234 -0.5051  0.6863
    19 H(1)   Bbb    -0.0492   -26.240    -9.363    -8.753  0.5431  0.8183  0.1881
              Bcc     0.1013    54.068    19.293    18.035 -0.6566  0.2743  0.7026
 
              Baa    -0.0112    -5.968    -2.129    -1.991  0.7904  0.4987  0.3558
    20 H(1)   Bbb    -0.0006    -0.342    -0.122    -0.114 -0.5845  0.7878  0.1941
              Bcc     0.0118     6.310     2.251     2.105 -0.1835 -0.3614  0.9142
 
              Baa    -0.0116    -6.213    -2.217    -2.073  0.6257 -0.4731  0.6202
    21 H(1)   Bbb    -0.0009    -0.485    -0.173    -0.162  0.7801  0.3822 -0.4954
              Bcc     0.0126     6.698     2.390     2.234 -0.0026  0.7938  0.6082
 
              Baa    -1.4708   106.428    37.976    35.500 -0.4222  0.8565 -0.2970
    22 O(17)  Bbb    -1.4391   104.135    37.158    34.736  0.6730  0.5156  0.5303
              Bcc     2.9100  -210.563   -75.134   -70.236 -0.6073 -0.0240  0.7941
 
              Baa    -0.5827    42.165    15.045    14.065  0.5725  0.7034  0.4213
    23 O(17)  Bbb    -0.4415    31.944    11.398    10.655 -0.5914  0.7102 -0.3819
              Bcc     1.0242   -74.108   -26.444   -24.720 -0.5678 -0.0305  0.8226
 
              Baa    -0.0277   -14.783    -5.275    -4.931  0.7909  0.4895  0.3672
    24 H(1)   Bbb    -0.0205   -10.923    -3.898    -3.644 -0.4384  0.0347  0.8981
              Bcc     0.0482    25.706     9.173     8.575 -0.4269  0.8713 -0.2421
 

 ---------------------------------------------------------------------------------

 Calling FoFJK, ICntrl=    100147 FMM=F ISym2X=0 I1Cent= 0 IOpClX= 1 NMat=1 NMatS=1 NMatT=0.
 ***** Axes restored to original set *****
 -------------------------------------------------------------------
 Center     Atomic                   Forces (Hartrees/Bohr)
 Number     Number              X              Y              Z
 -------------------------------------------------------------------
      1        6          -0.025252145    0.001661661   -0.002443379
      2        6           0.005659285    0.004283998    0.001801786
      3        6           0.005774315   -0.003596646    0.003349584
      4        6          -0.006355089    0.000893949   -0.002670996
      5        1           0.001935502    0.002156305    0.000136470
      6        6          -0.001749556    0.000011879   -0.001112599
      7        1           0.000620532   -0.002332089    0.001380043
      8        6           0.001779683    0.001054409    0.000345091
      9        1          -0.000814781    0.002375475   -0.000798837
     10        6           0.002763688   -0.001565417    0.001425149
     11        6          -0.003192848   -0.001305910   -0.000459488
     12        1           0.000727869   -0.002370667    0.000792410
     13        6          -0.003230540   -0.000579019   -0.000816230
     14        1          -0.001936005   -0.002110928    0.000153123
     15        6          -0.001089526    0.002389510   -0.001386729
     16        1          -0.000804244    0.002415641   -0.000711695
     17        1          -0.002769793    0.000453015   -0.000765234
     18        6           0.032454191   -0.005428561   -0.009942694
     19        1          -0.005744365    0.001139506    0.004544919
     20        1          -0.003409141    0.001268098    0.009698130
     21        1          -0.004322100    0.003974080    0.012301637
     22        8          -0.014084405   -0.039971625   -0.031374194
     23        8           0.019176370    0.041815343    0.013789237
     24        1           0.003863104   -0.006632009    0.002764496
 -------------------------------------------------------------------
 Cartesian Forces:  Max     0.041815343 RMS     0.010271054
 FormGI is forming the generalized inverse of G from B-inverse, IUseBI=4.

 GradGradGradGradGradGradGradGradGradGradGradGradGradGradGradGradGradGrad
 Berny optimization.
 Internal  Forces:  Max     0.045158900 RMS     0.005902954
 Search for a local minimum.
 Step number   1 out of a maximum of  144
 All quantities printed in internal units (Hartrees-Bohrs-Radians)
 Mixed Optimization -- RFO/linear search
 Second derivative matrix not updated -- analytic derivatives used.
 ITU=  0
     Eigenvalues ---   -0.01071  -0.00412   0.00010   0.00244   0.00792
     Eigenvalues ---    0.01169   0.01411   0.01434   0.01621   0.01722
     Eigenvalues ---    0.01866   0.02031   0.02115   0.02233   0.02267
     Eigenvalues ---    0.02421   0.02446   0.02520   0.02665   0.02835
     Eigenvalues ---    0.02884   0.04516   0.05437   0.06442   0.08664
     Eigenvalues ---    0.11128   0.11518   0.11656   0.11840   0.12049
     Eigenvalues ---    0.12315   0.12407   0.12749   0.13327   0.17672
     Eigenvalues ---    0.17755   0.18441   0.18898   0.19379   0.19813
     Eigenvalues ---    0.20422   0.20602   0.27222   0.30086   0.30686
     Eigenvalues ---    0.33630   0.36201   0.36574   0.36651   0.36755
     Eigenvalues ---    0.36896   0.36989   0.37051   0.37170   0.37257
     Eigenvalues ---    0.38770   0.39690   0.41294   0.42495   0.43477
     Eigenvalues ---    0.45328   0.50576   0.52382   0.54277   0.54815
     Eigenvalues ---    0.55271
 RFO step:  Lambda=-3.19520352D-02 EMin=-1.07095240D-02
 Linear search not attempted -- first point.
 Maximum step size (   0.300) exceeded in Quadratic search.
    -- Step size scaled by   0.386
 Iteration  1 RMS(Cart)=  0.10852703 RMS(Int)=  0.00755616
 Iteration  2 RMS(Cart)=  0.00971046 RMS(Int)=  0.00033254
 Iteration  3 RMS(Cart)=  0.00004675 RMS(Int)=  0.00033036
 Iteration  4 RMS(Cart)=  0.00000003 RMS(Int)=  0.00033036
 Variable       Old X    -DE/DX   Delta X   Delta X   Delta X     New X
                                 (Linear)    (Quad)   (Total)
    R1        2.60732  -0.00050   0.00000  -0.00464  -0.00464   2.60267
    R2        2.69521   0.00089   0.00000  -0.00231  -0.00231   2.69290
    R3        2.74232   0.02773   0.00000   0.03830   0.03829   2.78061
    R4        2.66790   0.00777   0.00000   0.00603   0.00603   2.67393
    R5        2.04823   0.00274   0.00000   0.00270   0.00270   2.05094
    R6        2.56998   0.01002   0.00000   0.00905   0.00905   2.57903
    R7        2.04527   0.00288   0.00000   0.00270   0.00270   2.04797
    R8        2.68376   0.00239   0.00000   0.00098   0.00098   2.68475
    R9        2.04614   0.00264   0.00000   0.00211   0.00211   2.04825
   R10        2.68121   0.00386   0.00000   0.00218   0.00218   2.68340
   R11        2.67797   0.00478   0.00000   0.00282   0.00282   2.68079
   R12        2.67029   0.00634   0.00000   0.00605   0.00605   2.67633
   R13        2.58194   0.00734   0.00000   0.00435   0.00435   2.58629
   R14        2.04607   0.00260   0.00000   0.00210   0.00210   2.04818
   R15        2.66892   0.00482   0.00000   0.00430   0.00431   2.67323
   R16        2.04288   0.00287   0.00000   0.00263   0.00263   2.04551
   R17        2.58540   0.00588   0.00000   0.00329   0.00329   2.58869
   R18        2.04267   0.00291   0.00000   0.00274   0.00274   2.04540
   R19        2.04612   0.00263   0.00000   0.00216   0.00216   2.04827
[...]
 Iteration  2 RMS(Cart)=  0.00024024 RMS(Int)=  0.00002677
 Iteration  3 RMS(Cart)=  0.00000019 RMS(Int)=  0.00002677
 Variable       Old X    -DE/DX   Delta X   Delta X   Delta X     New X
                                 (Linear)    (Quad)   (Total)
    R1        2.59583   0.00018   0.00000   0.00007   0.00007   2.59590
    R2        2.69291   0.00002   0.00000  -0.00031  -0.00030   2.69261
    R3        2.84558  -0.00003   0.00000  -0.00120  -0.00119   2.84439
    R4        2.68858  -0.00023   0.00000  -0.00043  -0.00044   2.68815
    R5        2.05588  -0.00021   0.00000  -0.00067  -0.00067   2.05521
    R6        2.58922   0.00000   0.00000  -0.00015  -0.00014   2.58907
    R7        2.05349  -0.00006   0.00000  -0.00011  -0.00011   2.05339
    R8        2.68874  -0.00006   0.00000   0.00002   0.00002   2.68876
    R9        2.05362  -0.00024   0.00000  -0.00057  -0.00057   2.05304
   R10        2.68809  -0.00017   0.00000  -0.00009  -0.00010   2.68799
   R11        2.68573  -0.00018   0.00000  -0.00002  -0.00002   2.68571
   R12        2.68467  -0.00012   0.00000   0.00017   0.00017   2.68484
   R13        2.59505  -0.00009   0.00000  -0.00027  -0.00027   2.59478
   R14        2.05345  -0.00016   0.00000  -0.00051  -0.00051   2.05294
   R15        2.67910  -0.00015   0.00000  -0.00014  -0.00014   2.67896
   R16        2.04987   0.00002   0.00000   0.00002   0.00002   2.04989
   R17        2.59510  -0.00012   0.00000  -0.00003  -0.00003   2.59507
   R18        2.05082   0.00012   0.00000  -0.00001  -0.00001   2.05081
   R19        2.05336  -0.00019   0.00000  -0.00067  -0.00067   2.05269
   R20        2.06623   0.00039   0.00000  -0.00060  -0.00060   2.06563
   R21        2.06376   0.00036   0.00000   0.00078   0.00078   2.06454
   R22        2.06818  -0.00002   0.00000  -0.00052  -0.00052   2.06766
   R23        5.08511   0.00020   0.00000   0.01206   0.01206   5.09716
   R24        2.47876   0.00075   0.00000   0.00013   0.00013   2.47888
   R25        1.84449  -0.00033   0.00000  -0.00069  -0.00069   1.84381
    A1        2.07018  -0.00010   0.00000  -0.00030  -0.00031   2.06988
    A2        2.12889  -0.00043   0.00000  -0.00305  -0.00308   2.12581
    A3        2.08409   0.00053   0.00000   0.00336   0.00340   2.08749
    A4        2.12437   0.00008   0.00000   0.00015   0.00016   2.12453
    A5        2.09222  -0.00002   0.00000  -0.00010  -0.00011   2.09211
    A6        2.06656  -0.00006   0.00000  -0.00004  -0.00005   2.06652
    A7        2.11604  -0.00006   0.00000   0.00022   0.00021   2.11625
    A8        2.07393   0.00004   0.00000   0.00018   0.00018   2.07411
    A9        2.09321   0.00001   0.00000  -0.00040  -0.00040   2.09282
   A10        2.10859   0.00005   0.00000   0.00005   0.00005   2.10864
   A11        2.10132   0.00007   0.00000  -0.00024  -0.00023   2.10109
   A12        2.07327  -0.00012   0.00000   0.00019   0.00017   2.07345
   A13        2.07897   0.00002   0.00000   0.00019   0.00018   2.07916
   A14        2.12970  -0.00003   0.00000  -0.00026  -0.00025   2.12945
   A15        2.07451   0.00002   0.00000   0.00007   0.00007   2.07458
   A16        2.06820   0.00001   0.00000  -0.00029  -0.00029   2.06791
   A17        2.13523  -0.00004   0.00000   0.00033   0.00033   2.13556
   A18        2.07976   0.00002   0.00000  -0.00004  -0.00004   2.07972
   A19        2.10808  -0.00003   0.00000  -0.00010  -0.00010   2.10798
   A20        2.07200   0.00003   0.00000   0.00010   0.00010   2.07210
   A21        2.10309  -0.00000   0.00000  -0.00000  -0.00000   2.10309
   A22        2.09976   0.00002   0.00000   0.00018   0.00017   2.09994
   A23        2.09478  -0.00000   0.00000  -0.00003  -0.00003   2.09476
   A24        2.08864  -0.00002   0.00000  -0.00015  -0.00015   2.08849
   A25        2.09723  -0.00001   0.00000  -0.00002  -0.00002   2.09721
   A26        2.08700   0.00002   0.00000   0.00019   0.00019   2.08719
   A27        2.09895  -0.00001   0.00000  -0.00017  -0.00017   2.09878
   A28        2.10703  -0.00002   0.00000  -0.00009  -0.00009   2.10694
   A29        2.07262  -0.00001   0.00000   0.00001   0.00001   2.07263
   A30        2.10354   0.00003   0.00000   0.00008   0.00008   2.10361
   A31        1.94018   0.00057   0.00000   0.00704   0.00691   1.94710
   A32        1.94071  -0.00028   0.00000  -0.00451  -0.00446   1.93625
   A33        1.94156  -0.00014   0.00000   0.00191   0.00190   1.94346
   A34        1.88131  -0.00012   0.00000  -0.00209  -0.00201   1.87930
   A35        1.87463  -0.00036   0.00000  -0.00191  -0.00192   1.87271
   A36        1.88258   0.00031   0.00000  -0.00069  -0.00067   1.88191
   A37        1.52292  -0.00026   0.00000  -0.00508  -0.00508   1.51783
   A38        1.85040  -0.00016   0.00000   0.00103   0.00103   1.85143
   A39        4.08494  -0.00006   0.00000  -0.01781  -0.01800   4.06695
   A40        1.42634   0.00015   0.00000   0.04317   0.04320   1.46954
    D1        0.00257   0.00003   0.00000  -0.00064  -0.00064   0.00193
    D2        3.13531   0.00003   0.00000  -0.00011  -0.00012   3.13520
    D3       -3.13180   0.00001   0.00000  -0.00282  -0.00280  -3.13460
    D4        0.00095   0.00001   0.00000  -0.00229  -0.00227  -0.00133
    D5        0.00061  -0.00006   0.00000  -0.00326  -0.00327  -0.00266
    D6        3.14127  -0.00003   0.00000  -0.00070  -0.00069   3.14058
    D7        3.13517  -0.00004   0.00000  -0.00117  -0.00119   3.13398
    D8       -0.00736  -0.00002   0.00000   0.00140   0.00139  -0.00597
    D9        2.10180  -0.00009   0.00000  -0.00756  -0.00752   2.09428
   D10        0.00562  -0.00014   0.00000  -0.00662  -0.00661  -0.00098
   D11       -2.09308  -0.00025   0.00000  -0.00399  -0.00403  -2.09711
   D12       -1.03252  -0.00011   0.00000  -0.00974  -0.00969  -1.04220
   D13       -3.12869  -0.00015   0.00000  -0.00881  -0.00877  -3.13746
   D14        1.05579  -0.00027   0.00000  -0.00618  -0.00619   1.04960
   D15       -0.00400   0.00002   0.00000   0.00373   0.00374  -0.00026
   D16        3.13462   0.00001   0.00000   0.00393   0.00393   3.13855
   D17       -3.13687   0.00002   0.00000   0.00321   0.00322  -3.13365
   D18        0.00175   0.00001   0.00000   0.00341   0.00341   0.00517
   D19       -0.00230   0.00003   0.00000   0.00397   0.00398   0.00168
   D20        3.13746   0.00001   0.00000   0.00189   0.00190   3.13937
   D21        3.14024   0.00001   0.00000   0.00137   0.00137  -3.14158
   D22       -0.00318  -0.00002   0.00000  -0.00071  -0.00071  -0.00389
   D23        0.00082   0.00002   0.00000  -0.00077  -0.00078   0.00004
   D24       -3.13820   0.00000   0.00000  -0.00194  -0.00194  -3.14014
   D25       -3.13897   0.00004   0.00000   0.00128   0.00127  -3.13771
   D26        0.00519   0.00002   0.00000   0.00011   0.00010   0.00530
   D27        0.00225  -0.00004   0.00000  -0.00300  -0.00300  -0.00075
   D28        3.14135  -0.00003   0.00000  -0.00187  -0.00187   3.13948
   D29       -3.13647  -0.00003   0.00000  -0.00319  -0.00318  -3.13966
   D30        0.00263  -0.00002   0.00000  -0.00206  -0.00206   0.00057
   D31       -3.13827   0.00003   0.00000   0.00109   0.00110  -3.13718
   D32       -0.00272   0.00002   0.00000   0.00041   0.00042  -0.00230
   D33        0.00036   0.00001   0.00000   0.00129   0.00129   0.00165
   D34        3.13591   0.00001   0.00000   0.00061   0.00061   3.13652
   D35        3.13563   0.00003   0.00000   0.00273   0.00273   3.13836
   D36       -0.00762   0.00000   0.00000   0.00058   0.00058  -0.00704
   D37       -0.00337   0.00001   0.00000   0.00155   0.00156  -0.00181
   D38        3.13656  -0.00001   0.00000  -0.00059  -0.00059   3.13597
   D39       -0.00268  -0.00001   0.00000   0.00003   0.00003  -0.00264
   D40        3.13895  -0.00003   0.00000  -0.00028  -0.00028   3.13867
   D41       -3.13812   0.00000   0.00000   0.00072   0.00072  -3.13740
   D42        0.00351  -0.00002   0.00000   0.00041   0.00041   0.00392
   D43        0.00196  -0.00000   0.00000  -0.00057  -0.00057   0.00139
   D44       -3.14019   0.00003   0.00000   0.00080   0.00080  -3.13939
   D45       -3.13966   0.00002   0.00000  -0.00027  -0.00026  -3.13993
   D46        0.00137   0.00005   0.00000   0.00111   0.00111   0.00248
   D47        0.00110  -0.00000   0.00000  -0.00023  -0.00023   0.00086
   D48       -3.13880   0.00002   0.00000   0.00195   0.00195  -3.13685
   D49       -3.13993  -0.00003   0.00000  -0.00162  -0.00162  -3.14155
   D50        0.00335  -0.00001   0.00000   0.00057   0.00057   0.00392
   D51       -1.06189   0.00006   0.00000  -0.05583  -0.05576  -1.11765
   D52        0.75834  -0.00038   0.00000  -0.00800  -0.00799   0.75035
   D53        2.72826  -0.00031   0.00000  -0.01225  -0.01233   2.71592
   D54       -2.08679  -0.00064   0.00000   0.00223   0.00223  -2.08457
         Item               Value     Threshold  Converged?
 Maximum Force            0.000754     0.002500     YES
 RMS     Force            0.000173     0.001667     YES
 Maximum Displacement     0.056543     0.010000     NO 
 RMS     Displacement     0.010057     0.006667     NO 
 Predicted change in Energy=-3.010437D-05
 GradGradGradGradGradGradGradGradGradGradGradGradGradGradGradGradGradGrad

                          Input orientation:                          
 ---------------------------------------------------------------------
 Center     Atomic      Atomic             Coordinates (Angstroms)
 Number     Number       Type             X           Y           Z
 ---------------------------------------------------------------------
      1          6           0        1.110937    0.346798    0.175547
      2          6           0        0.203476   -0.672369    0.333175
      3          6           0        0.623341    1.659199   -0.089209
      4          6           0       -0.719500    1.911697   -0.189908
      5          1           0        1.337656    2.468510   -0.213631
      6          6           0       -1.197860   -0.447865    0.236346
      7          1           0        0.553062   -1.683239    0.529992
      8          6           0       -1.671672    0.866535   -0.030380
      9          1           0       -1.075855    2.918291   -0.390146
     10          6           0       -2.141801   -1.498449    0.394772
     11          6           0       -3.489007   -1.254151    0.291081
     12          1           0       -1.777205   -2.502293    0.593670
     13          6           0       -3.960356    0.056380    0.026397
     14          1           0       -4.198594   -2.065739    0.411509
     15          6           0       -3.071048    1.091052   -0.129810
     16          1           0       -3.425826    2.098323   -0.328417
     17          1           0       -5.027742    0.236452   -0.051127
     18          6           0        2.594362    0.109474    0.268869
     19          1           0        3.103622    0.379866   -0.659774
     20          1           0        2.809519   -0.942383    0.471048
     21          1           0        3.043134    0.703304    1.070836
     22          8           0        5.676518   -0.353810   -0.317196
     23          8           0        5.364015   -1.476016   -0.920300
     24          1           0        5.542853   -2.187447   -0.276970
 ---------------------------------------------------------------------
                    Distance matrix (angstroms):
                    1          2          3          4          5
     1  C    0.000000
     2  C    1.373693   0.000000
     3  C    1.424866   2.406430   0.000000
     4  C    2.435769   2.793367   1.370079   0.000000
     5  H    2.168991   3.383856   1.086605   2.131313   0.000000
     6  C    2.442485   1.422505   2.804011   2.445006   3.890574
     7  H    2.134926   1.087569   3.400036   3.880881   4.290173
     8  C    2.838212   2.452871   2.428757   1.422829   3.414082
     9  H    3.422667   3.879784   2.136151   1.086424   2.461401
    10  C    3.746105   2.487273   4.225043   3.740840   5.311642
    11  C    4.871948   3.738272   5.054071   4.233688   6.116340
    12  H    4.078420   2.709165   4.852521   4.606087   5.921400
    13  C    5.081792   4.238241   4.857229   3.740606   5.826227
    14  H    5.836706   4.617990   6.113668   5.318439   7.183333
    15  C    4.258657   3.747868   3.738040   2.491354   4.619641
    16  H    4.889176   4.613705   4.079927   2.716287   4.779224
    17  H    6.143854   5.323466   5.827555   4.624571   6.747354
    18  C    1.505184   2.516297   2.532744   3.800022   2.716094
    19  H    2.160936   3.240986   2.848514   4.145304   2.771301
    20  H    2.152786   2.623619   3.444052   4.586569   3.777480
    21  H    2.159171   3.240412   2.848656   4.148145   2.770282
    22  O    4.645231   5.520747   5.444152   6.786588   5.177059
    23  O    4.755229   5.371053   5.744065   7.001374   5.680690
    24  H    5.125334   5.583609   6.247683   7.485161   6.274203
                    6          7          8          9         10
     6  C    0.000000
     7  H    2.162894   0.000000
     8  C    1.422423   3.429987   0.000000
     9  H    3.426133   4.967304   2.166595   0.000000
    10  C    1.421214   2.704574   2.448454   4.610850   0.000000
    11  C    2.429495   4.071796   2.811291   4.867920   1.373098
    12  H    2.164254   2.470839   3.427766   5.553604   1.086367
    13  C    2.815977   4.863212   2.428508   4.084653   2.420813
    14  H    3.413591   4.768499   3.896002   5.935883   2.133657
    15  C    2.451768   4.611530   1.420756   2.717972   2.800750
    16  H    3.430140   5.555955   2.164066   2.489683   3.886964
    17  H    3.901144   5.930286   3.414768   4.787965   3.396670
    18  C    3.833097   2.729269   4.343010   4.668431   5.003250
    19  H    4.471120   3.489599   4.841117   4.897380   5.670502
    20  H    4.044592   2.375698   4.858466   5.544601   4.983031
    21  H    4.472984   3.491211   4.844452   4.899664   5.673475
    22  O    6.897269   5.360495   7.454354   7.503766   7.933675
    23  O    6.741894   5.029071   7.468628   7.814278   7.620184
    24  H    6.980463   5.079707   7.838175   8.359945   7.744667
                   11         12         13         14         15
    11  C    0.000000
    12  H    2.140020   0.000000
    13  C    1.417645   3.410975   0.000000
    14  H    1.084754   2.467162   2.169898   0.000000
    15  C    2.419053   3.887104   1.373250   3.395543   0.000000
    16  H    3.409817   4.973315   2.140361   4.299310   1.086235
    17  H    2.169496   4.299126   1.085242   2.490302   2.136629
    18  C    6.234368   5.102687   6.559416   7.134153   5.763619
    19  H    6.858344   5.805207   7.104594   7.775023   6.238044
    20  H    6.308805   4.846276   6.857584   7.097825   6.251156
    21  H    6.863564   5.808545   7.110431   7.781062   6.243005
    22  O    9.229705   7.810482   9.651717  10.048857   8.868069
    23  O    8.938270   7.371728   9.496756   9.672899   8.852401
    24  H    9.097704   7.378373   9.769226   9.766504   9.217890
                   16         17         18         19         20
    16  H    0.000000
    17  H    2.471758   0.000000
    18  C    6.368276   7.629875   0.000000
    19  H    6.759924   8.155372   1.093085   0.000000
    20  H    6.983163   7.942606   1.092507   1.764538   0.000000
    21  H    6.763980   8.161849   1.094157   1.761613   1.767089
    22  O    9.426863  10.723823   3.171402   2.697301   3.031077
    23  O    9.507236  10.567717   3.405713   2.936248   2.957375
    24  H    9.940205  10.847294   3.777219   3.561950   3.095292
                   21         22         23         24
    21  H    0.000000
    22  O    3.158929   0.000000
    23  O    3.755070   1.311769   0.000000
    24  H    4.052359   1.838942   0.975700   0.000000
 Stoichiometry    C11H11O2(2)
 Framework group  C1[X(C11H11O2)]
 Deg. of freedom    66
 Full point group                 C1      NOp   1
 Largest Abelian subgroup         C1      NOp   1
 Largest concise Abelian subgroup C1      NOp   1
                         Standard orientation:                         
 ---------------------------------------------------------------------
 Center     Atomic      Atomic             Coordinates (Angstroms)
 Number     Number       Type             X           Y           Z
 ---------------------------------------------------------------------
      1          6           0        0.861078    0.423953    0.273745
      2          6           0        0.032071   -0.671163    0.296168
      3          6           0        0.285041    1.711309    0.070917
      4          6           0       -1.065125    1.866584   -0.102453
      5          1           0        0.937044    2.580388    0.053429
      6          6           0       -1.374230   -0.548518    0.120676
      7          1           0        0.450355   -1.664199    0.443555
      8          6           0       -1.936596    0.742038   -0.083033
      9          1           0       -1.489580    2.855111   -0.254009
     10          6           0       -2.237002   -1.677736    0.139171
     11          6           0       -3.590654   -1.530719   -0.038058
     12          1           0       -1.804491   -2.662791    0.290151
     13          6           0       -4.150379   -0.243976   -0.239845
     14          1           0       -4.237518   -2.401391   -0.024387
     15          6           0       -3.340787    0.865046   -0.260979
     16          1           0       -3.763830    1.854241   -0.410756
     17          1           0       -5.222056   -0.141254   -0.376619
     18          6           0        2.350300    0.295156    0.450406
     19          1           0        2.892317    0.674329   -0.419812
     20          1           0        2.637889   -0.749390    0.591071
     21          1           0        2.698357    0.858594    1.321367
     22          8           0        5.490427    0.116946    0.043425
     23          8           0        5.308841   -0.976480   -0.658133
     24          1           0        5.505079   -1.719214   -0.056613
 ---------------------------------------------------------------------
 Rotational constants (GHZ):           2.1216000           0.2835916           0.2542928
 Standard basis: 6-31+G(d,p) (6D, 7F)
 There are   302 symmetry adapted cartesian basis functions of A   symmetry.
 There are   302 symmetry adapted basis functions of A   symmetry.
   302 basis functions,   493 primitive gaussians,   302 cartesian basis functions
    47 alpha electrons       46 beta electrons
       nuclear repulsion energy       685.6463472955 Hartrees.
 NAtoms=   24 NActive=   24 NUniq=   24 SFac= 1.00D+00 NAtFMM=   60 NAOKFM=F Big=F
 Integral buffers will be    131072 words long.
 Raffenetti 2 integral format.
 Two-electron integral symmetry is turned on.
 One-electron integrals computed using PRISM.
 NBasis=   302 RedAO= T EigKep=  1.52D-06  NBF=   302
 NBsUse=   300 1.00D-06 EigRej=  9.97D-07 NBFU=   300
 Initial guess from the checkpoint file:  "/scratch/dinius.ab/QMscratch/Gau-319372.chk"
 B after Tr=    -0.000000    0.000000   -0.000000
         Rot=    1.000000   -0.000551    0.000142   -0.000044 Ang=  -0.07 deg.
 Initial guess <Sx>= 0.0000 <Sy>= 0.0000 <Sz>= 0.5000 <S**2>= 0.7546 S= 0.5023
 ExpMin= 4.38D-02 ExpMax= 5.48D+03 ExpMxC= 8.25D+02 IAcc=2 IRadAn=         4 AccDes= 0.00D+00
 Harris functional with IExCor= 1009 and IRadAn=       4 diagonalized for initial guess.
 HarFok:  IExCor= 1009 AccDes= 0.00D+00 IRadAn=         4 IDoV= 1 UseB2=F ITyADJ=14
 ICtDFT=  3500011 ScaDFX=  1.000000  1.000000  1.000000  1.000000
 FoFCou: FMM=F IPFlag=           0 FMFlag=      100000 FMFlg1=           0
         NFxFlg=           0 DoJE=T BraDBF=F KetDBF=T FulRan=T
         wScrn=  0.000000 ICntrl=       500 IOpCl=  0 I1Cent=   200000004 NGrid=           0
         NMat0=    1 NMatS0=      1 NMatT0=    0 NMatD0=    1 NMtDS0=    0 NMtDT0=    0
 Petite list used in FoFCou.
