 Entering Gaussian System, Link 0=g16
 Input=rxn908final.com
 Output=rxn908final.log
 Initial command:
 /shared/centos7/gaussian/g16/l1.exe "/scratch/dinius.ab/QMscratch/Gau-447216.inp" -scrdir="/scratch/dinius.ab/QMscratch/"
 Default is to use a total of  20 processors:
                               20 via shared-memory
                                1 via Linda
 Entering Link 1 = /shared/centos7/gaussian/g16/l1.exe PID=    447217.
  
 Copyright (c) 1988,1990,1992,1993,1995,1998,2003,2009,2016,
            Gaussian, Inc.  All Rights Reserved.
  
 This is part of the Gaussian(R) 16 program.  It is based on
 the Gaussian(R) 09 system (copyright 2009, Gaussian, Inc.),
 the Gaussian(R) 03 system (copyright 2003, Gaussian, Inc.),
 the Gaussian(R) 98 system (copyright 1998, Gaussian, Inc.),
 the Gaussian(R) 94 system (copyright 1995, Gaussian, Inc.),
 the Gaussian 92(TM) system (copyright 1992, Gaussian, Inc.),
 the Gaussian 90(TM) system (copyright 1990, Gaussian, Inc.),
 the Gaussian 88(TM) system (copyright 1988, Gaussian, Inc.),
 the Gaussian 86(TM) system (copyright 1986, Carnegie Mellon
 University), and the Gaussian 82(TM) system (copyright 1983,
 Carnegie Mellon University). Gaussian is a federally registered
 trademark of Gaussian, Inc.
  
 This software contains proprietary and confidential information,
 including trade secrets, belonging to Gaussian, Inc.
  
 This software is provided under written license and may be
 used, copied, transmitted, or stored only in accord with that
 written license.
  
 The following legend is applicable only to US Government
 contracts under FAR:
  
                    RESTRICTED RIGHTS LEGEND
  
 Use, reproduction and disclosure by the US Government is
 subject to restrictions as set forth in subparagraphs (a)
 and (c) of the Commercial Computer Software - Restricted
 Rights clause in FAR 52.227-19.
  
 Gaussian, Inc.
 340 Quinnipiac St., Bldg. 40, Wallingford CT 06492
  
  
 ---------------------------------------------------------------
 Warning -- This program may not be used in any manner that
 competes with the business of Gaussian, Inc. or will provide
 assistance to any competitor of Gaussian, Inc.  The licensee
 of this program is prohibited from giving any competitor of
 Gaussian, Inc. access to this program.  By using this program,
 the user acknowledges that Gaussian, Inc. is engaged in the
 business of creating and licensing software in the field of
 computational chemistry and represents and warrants to the
 licensee that it is not a competitor of Gaussian, Inc. and that
 it will not use this program in any manner prohibited above.
 ---------------------------------------------------------------
  

 Cite this work as:
 Gaussian 16, Revision A.03,
 M. J. Frisch, G. W. Trucks, H. B. Schlegel, G. E. Scuseria, 
 M. A. Robb, J. R. Cheeseman, G. Scalmani, V. Barone, 
 G. A. Petersson, H. Nakatsuji, X. Li, M. Caricato, A. V. Marenich, 
 J. Bloino, B. G. Janesko, R. Gomperts, B. Mennucci, H. P. Hratchian, 
 J. V. Ortiz, A. F. Izmaylov, J. L. Sonnenberg, D. Williams-Young, 
 F. Ding, F. Lipparini, F. Egidi, J. Goings, B. Peng, A. Petrone, 
 T. Henderson, D. Ranasinghe, V. G. Zakrzewski, J. Gao, N. Rega, 
 G. Zheng, W. Liang, M. Hada, M. Ehara, K. Toyota, R. Fukuda, 
 J. Hasegawa, M. Ishida, T. Nakajima, Y. Honda, O. Kitao, H. Nakai, 
 T. Vreven, K. Throssell, J. A. Montgomery, Jr., J. E. Peralta, 
 F. Ogliaro, M. J. Bearpark, J. J. Heyd, E. N. Brothers, K. N. Kudin, 
 V. N. Staroverov, T. A. Keith, R. Kobayashi, J. Normand, 
 K. Raghavachari, A. P. Rendell, J. C. Burant, S. S. Iyengar, 
 J. Tomasi, M. Cossi, J. M. Millam, M. Klene, C. Adamo, R. Cammi, 
 J. W. Ochterski, R. L. Martin, K. Morokuma, O. Farkas, 
 J. B. Foresman, and D. J. Fox, Gaussian, Inc., Wallingford CT, 2016.
 
 ******************************************
 Gaussian 16:  EM64L-G16RevA.03 25-Dec-2016
                21-Feb-2019 
 ******************************************
 ----------------------------------------------------------------------
 # m062x/6-31G(d,p) Opt=(TS,Loose,maxcycle=1000,CalcFC,NoEigenTest) Int
 (Grid=SG1) freq
 ----------------------------------------------------------------------
 1/5=1,6=1000,7=-1,10=4,11=1,18=20,26=2,38=1/1,3;
 2/9=110,12=2,17=6,18=5,40=1/2;
 3/5=1,6=6,7=101,11=2,25=1,30=1,71=2,74=-55,75=1,140=1/1,2,3;
 4//1;
 5/5=2,38=5/2;
 8/6=4,10=90,11=11/1;
 11/6=1,8=1,9=11,15=111,16=1/1,2,10;
 10/6=1,13=1/2;
 6/7=2,8=2,9=2,10=2,28=1/1;
 7/10=1,18=20,25=1/1,2,3,16;
 1/5=1,6=1000,7=-1,10=4,11=1,18=20,26=2/3(2);
 2/9=110/2;
 99//99;
 2/9=110/2;
 3/5=1,6=6,7=101,11=2,25=1,30=1,71=1,74=-55,75=1/1,2,3;
 4/5=5,16=3,69=1/1;
 5/5=2,38=5/2;
 7//1,2,3,16;
 1/5=1,6=1000,7=-1,11=1,18=20,26=2/3(-5);
 2/9=110/2;
 6/7=2,8=2,9=2,10=2,19=2,28=1/1;
 99/9=1/99;
 -----
 Title
 -----
 Symbolic Z-matrix:
 Charge =  0 Multiplicity = 2
 C                     1.26636   0.42428   0.70388 
 C                     0.3638   -0.61738   0.76705 
 C                     0.82353   1.6804    0.19375 
 C                    -0.46344   1.86063  -0.20719 
 H                     1.53352   2.49467   0.12833 
 C                    -0.979    -0.45816   0.36123 
 H                     0.68489  -1.58249   1.14156 
 C                    -1.4057    0.80046  -0.13566 
 H                    -0.78953   2.81883  -0.59178 
 C                    -1.91612  -1.51867   0.43446 
 C                    -3.20909  -1.33695   0.03197 
 H                    -1.58714  -2.47676   0.81676 
 C                    -3.63118  -0.08427  -0.46534 
 H                    -3.91484  -2.15363   0.0921 
 C                    -2.7489    0.95833  -0.54507 
 H                    -3.06717   1.91949  -0.92879 
 H                    -4.65484   0.04477  -0.78765 
 C                     2.65815   0.24161   1.07192 
 H                     3.21352   0.02774   0.13645 
 H                     2.88105  -0.62993   1.6801 
 H                     3.1938    1.13442   1.38227 
 O                     3.73012  -0.16317  -0.67557 
 O                     3.06111  -1.24974  -1.24036 
 H                     3.62642  -1.99546  -1.00792 
 

 GradGradGradGradGradGradGradGradGradGradGradGradGradGradGradGradGradGrad
 Berny optimization.
 Initialization pass.
                           ----------------------------
                           !    Initial Parameters    !
                           ! (Angstroms and Degrees)  !
 --------------------------                            --------------------------
 ! Name  Definition              Value          Derivative Info.                !
 --------------------------------------------------------------------------------
 ! R1    R(1,2)                  1.3797         calculate D2E/DX2 analytically  !
 ! R2    R(1,3)                  1.4262         calculate D2E/DX2 analytically  !
 ! R3    R(1,18)                 1.4512         calculate D2E/DX2 analytically  !
 ! R4    R(2,6)                  1.4118         calculate D2E/DX2 analytically  !
 ! R5    R(2,7)                  1.0839         calculate D2E/DX2 analytically  !
 ! R6    R(3,4)                  1.36           calculate D2E/DX2 analytically  !
 ! R7    R(3,5)                  1.0823         calculate D2E/DX2 analytically  !
 ! R8    R(4,8)                  1.4202         calculate D2E/DX2 analytically  !
 ! R9    R(4,9)                  1.0828         calculate D2E/DX2 analytically  !
 ! R10   R(6,8)                  1.4188         calculate D2E/DX2 analytically  !
 ! R11   R(6,10)                 1.4171         calculate D2E/DX2 analytically  !
 ! R12   R(8,15)                 1.4131         calculate D2E/DX2 analytically  !
 ! R13   R(10,11)                1.3663         calculate D2E/DX2 analytically  !
 ! R14   R(10,12)                1.0827         calculate D2E/DX2 analytically  !
 ! R15   R(11,13)                1.4123         calculate D2E/DX2 analytically  !
 ! R16   R(11,14)                1.081          calculate D2E/DX2 analytically  !
 ! R17   R(13,15)                1.3681         calculate D2E/DX2 analytically  !
 ! R18   R(13,17)                1.0809         calculate D2E/DX2 analytically  !
 ! R19   R(15,16)                1.0828         calculate D2E/DX2 analytically  !
 ! R20   R(18,19)                1.1087         calculate D2E/DX2 analytically  !
 ! R21   R(18,20)                1.0859         calculate D2E/DX2 analytically  !
 ! R22   R(18,21)                1.0864         calculate D2E/DX2 analytically  !
 ! R23   R(19,22)                0.9812         calculate D2E/DX2 analytically  !
 ! R24   R(22,23)                1.3954         calculate D2E/DX2 analytically  !
 ! R25   R(23,24)                0.9642         calculate D2E/DX2 analytically  !
 ! A1    A(2,1,3)              118.5671         calculate D2E/DX2 analytically  !
 ! A2    A(2,1,18)             121.382          calculate D2E/DX2 analytically  !
 ! A3    A(3,1,18)             119.9574         calculate D2E/DX2 analytically  !
 ! A4    A(1,2,6)              121.5931         calculate D2E/DX2 analytically  !
 ! A5    A(1,2,7)              119.622          calculate D2E/DX2 analytically  !
 ! A6    A(6,2,7)              118.7839         calculate D2E/DX2 analytically  !
 ! A7    A(1,3,4)              121.0633         calculate D2E/DX2 analytically  !
 ! A8    A(1,3,5)              118.721          calculate D2E/DX2 analytically  !
 ! A9    A(4,3,5)              120.2156         calculate D2E/DX2 analytically  !
 ! A10   A(3,4,8)              120.9361         calculate D2E/DX2 analytically  !
 ! A11   A(3,4,9)              120.4635         calculate D2E/DX2 analytically  !
 ! A12   A(8,4,9)              118.6001         calculate D2E/DX2 analytically  !
 ! A13   A(2,6,8)              119.1275         calculate D2E/DX2 analytically  !
 ! A14   A(2,6,10)             121.9862         calculate D2E/DX2 analytically  !
 ! A15   A(8,6,10)             118.8863         calculate D2E/DX2 analytically  !
 ! A16   A(4,8,6)              118.7057         calculate D2E/DX2 analytically  !
 ! A17   A(4,8,15)             122.1869         calculate D2E/DX2 analytically  !
 ! A18   A(6,8,15)             119.1073         calculate D2E/DX2 analytically  !
 ! A19   A(6,10,11)            120.7328         calculate D2E/DX2 analytically  !
 ! A20   A(6,10,12)            118.6543         calculate D2E/DX2 analytically  !
 ! A21   A(11,10,12)           120.6129         calculate D2E/DX2 analytically  !
 ! A22   A(10,11,13)           120.2991         calculate D2E/DX2 analytically  !
 ! A23   A(10,11,14)           120.062          calculate D2E/DX2 analytically  !
 ! A24   A(13,11,14)           119.6389         calculate D2E/DX2 analytically  !
 ! A25   A(11,13,15)           120.2456         calculate D2E/DX2 analytically  !
 ! A26   A(11,13,17)           119.5974         calculate D2E/DX2 analytically  !
 ! A27   A(15,13,17)           120.1562         calculate D2E/DX2 analytically  !
 ! A28   A(8,15,13)            120.7288         calculate D2E/DX2 analytically  !
 ! A29   A(8,15,16)            118.7682         calculate D2E/DX2 analytically  !
 ! A30   A(13,15,16)           120.5023         calculate D2E/DX2 analytically  !
 ! A31   A(1,18,19)            106.9003         calculate D2E/DX2 analytically  !
 ! A32   A(1,18,20)            116.1004         calculate D2E/DX2 analytically  !
 ! A33   A(1,18,21)            116.2228         calculate D2E/DX2 analytically  !
 ! A34   A(19,18,20)           102.4105         calculate D2E/DX2 analytically  !
 ! A35   A(19,18,21)            98.7761         calculate D2E/DX2 analytically  !
 ! A36   A(20,18,21)           113.4762         calculate D2E/DX2 analytically  !
 ! A37   A(19,22,23)           103.5356         calculate D2E/DX2 analytically  !
 ! A38   A(22,23,24)           102.9184         calculate D2E/DX2 analytically  !
 ! A39   L(18,19,22,9,-1)      181.5091         calculate D2E/DX2 analytically  !
 ! A40   L(18,19,22,9,-2)      179.0609         calculate D2E/DX2 analytically  !
 ! D1    D(3,1,2,6)             -1.033          calculate D2E/DX2 analytically  !
 ! D2    D(3,1,2,7)            179.326          calculate D2E/DX2 analytically  !
 ! D3    D(18,1,2,6)          -177.5166         calculate D2E/DX2 analytically  !
 ! D4    D(18,1,2,7)             2.8424         calculate D2E/DX2 analytically  !
 ! D5    D(2,1,3,4)              0.8616         calculate D2E/DX2 analytically  !
 ! D6    D(2,1,3,5)           -179.036          calculate D2E/DX2 analytically  !
 ! D7    D(18,1,3,4)           177.3967         calculate D2E/DX2 analytically  !
 ! D8    D(18,1,3,5)            -2.5009         calculate D2E/DX2 analytically  !
 ! D9    D(2,1,18,19)           94.8657         calculate D2E/DX2 analytically  !
 ! D10   D(2,1,18,20)          -18.6479         calculate D2E/DX2 analytically  !
 ! D11   D(2,1,18,21)         -156.0228         calculate D2E/DX2 analytically  !
 ! D12   D(3,1,18,19)          -81.5696         calculate D2E/DX2 analytically  !
 ! D13   D(3,1,18,20)          164.9168         calculate D2E/DX2 analytically  !
 ! D14   D(3,1,18,21)           27.5418         calculate D2E/DX2 analytically  !
 ! D15   D(1,2,6,8)              0.629          calculate D2E/DX2 analytically  !
 ! D16   D(1,2,6,10)          -179.3887         calculate D2E/DX2 analytically  !
 ! D17   D(7,2,6,8)           -179.7271         calculate D2E/DX2 analytically  !
 ! D18   D(7,2,6,10)             0.2552         calculate D2E/DX2 analytically  !
 ! D19   D(1,3,4,8)             -0.2817         calculate D2E/DX2 analytically  !
 ! D20   D(1,3,4,9)            179.9198         calculate D2E/DX2 analytically  !
 ! D21   D(5,3,4,8)            179.6145         calculate D2E/DX2 analytically  !
 ! D22   D(5,3,4,9)             -0.1841         calculate D2E/DX2 analytically  !
 ! D23   D(3,4,8,6)             -0.1359         calculate D2E/DX2 analytically  !
 ! D24   D(3,4,8,15)          -179.9906         calculate D2E/DX2 analytically  !
 ! D25   D(9,4,8,6)            179.6663         calculate D2E/DX2 analytically  !
 ! D26   D(9,4,8,15)            -0.1884         calculate D2E/DX2 analytically  !
 ! D27   D(2,6,8,4)             -0.0269         calculate D2E/DX2 analytically  !
 ! D28   D(2,6,8,15)           179.8324         calculate D2E/DX2 analytically  !
 ! D29   D(10,6,8,4)           179.9903         calculate D2E/DX2 analytically  !
 ! D30   D(10,6,8,15)           -0.1504         calculate D2E/DX2 analytically  !
 ! D31   D(2,6,10,11)         -179.8604         calculate D2E/DX2 analytically  !
 ! D32   D(2,6,10,12)            0.1824         calculate D2E/DX2 analytically  !
 ! D33   D(8,6,10,11)            0.1219         calculate D2E/DX2 analytically  !
 ! D34   D(8,6,10,12)         -179.8353         calculate D2E/DX2 analytically  !
 ! D35   D(4,8,15,13)          179.8854         calculate D2E/DX2 analytically  !
 ! D36   D(4,8,15,16)            0.2069         calculate D2E/DX2 analytically  !
 ! D37   D(6,8,15,13)            0.0312         calculate D2E/DX2 analytically  !
 ! D38   D(6,8,15,16)         -179.6473         calculate D2E/DX2 analytically  !
 ! D39   D(6,10,11,13)           0.027          calculate D2E/DX2 analytically  !
 ! D40   D(6,10,11,14)         179.9699         calculate D2E/DX2 analytically  !
 ! D41   D(12,10,11,13)        179.9834         calculate D2E/DX2 analytically  !
 ! D42   D(12,10,11,14)         -0.0737         calculate D2E/DX2 analytically  !
 ! D43   D(10,11,13,15)         -0.1498         calculate D2E/DX2 analytically  !
 ! D44   D(10,11,13,17)        179.537          calculate D2E/DX2 analytically  !
 ! D45   D(14,11,13,15)        179.9071         calculate D2E/DX2 analytically  !
 ! D46   D(14,11,13,17)         -0.4061         calculate D2E/DX2 analytically  !
 ! D47   D(11,13,15,8)           0.1191         calculate D2E/DX2 analytically  !
 ! D48   D(11,13,15,16)        179.792          calculate D2E/DX2 analytically  !
 ! D49   D(17,13,15,8)        -179.5659         calculate D2E/DX2 analytically  !
 ! D50   D(17,13,15,16)          0.107          calculate D2E/DX2 analytically  !
 ! D51   D(1,18,22,23)         -54.3502         calculate D2E/DX2 analytically  !
 ! D52   D(20,18,22,23)         68.3282         calculate D2E/DX2 analytically  !
 ! D53   D(21,18,22,23)       -175.3935         calculate D2E/DX2 analytically  !
 ! D54   D(19,22,23,24)       -102.6387         calculate D2E/DX2 analytically  !
 --------------------------------------------------------------------------------
 Trust Radius=3.00D-01 FncErr=1.00D-05 GrdErr=1.00D-04 EigMax=2.50D+02 EigMin=1.00D-04
 Number of steps in this run=    144 maximum allowed number of steps=    144.
 Search for a saddle point of order  1.
 GradGradGradGradGradGradGradGradGradGradGradGradGradGradGradGradGradGrad

                          Input orientation:                          
 ---------------------------------------------------------------------
 Center     Atomic      Atomic             Coordinates (Angstroms)
 Number     Number       Type             X           Y           Z
 ---------------------------------------------------------------------
      1          6           0        1.266360    0.424280    0.703880
      2          6           0        0.363800   -0.617380    0.767050
      3          6           0        0.823530    1.680400    0.193750
      4          6           0       -0.463440    1.860630   -0.207190
      5          1           0        1.533520    2.494670    0.128330
      6          6           0       -0.979000   -0.458160    0.361230
      7          1           0        0.684890   -1.582490    1.141560
      8          6           0       -1.405700    0.800460   -0.135660
      9          1           0       -0.789530    2.818830   -0.591780
     10          6           0       -1.916120   -1.518670    0.434460
     11          6           0       -3.209090   -1.336950    0.031970
     12          1           0       -1.587140   -2.476760    0.816760
     13          6           0       -3.631180   -0.084270   -0.465340
     14          1           0       -3.914840   -2.153630    0.092100
     15          6           0       -2.748900    0.958330   -0.545070
     16          1           0       -3.067170    1.919490   -0.928790
     17          1           0       -4.654840    0.044770   -0.787650
     18          6           0        2.658150    0.241610    1.071920
     19          1           0        3.213520    0.027740    0.136450
     20          1           0        2.881050   -0.629930    1.680100
     21          1           0        3.193800    1.134420    1.382270
     22          8           0        3.730120   -0.163170   -0.675570
     23          8           0        3.061110   -1.249740   -1.240360
     24          1           0        3.626420   -1.995460   -1.007920
 ---------------------------------------------------------------------
                    Distance matrix (angstroms):
                    1          2          3          4          5
     1  C    0.000000
     2  C    1.379732   0.000000
     3  C    1.426243   2.412430   0.000000
     4  C    2.425976   2.788190   1.359973   0.000000
     5  H    2.165444   3.385419   1.082313   2.121893   0.000000
     6  C    2.436750   1.411791   2.801893   2.442476   3.884096
     7  H    2.134666   1.083879   3.400591   3.872062   4.286029
     8  C    2.825994   2.440550   2.419147   1.420187   3.402801
     9  H    3.411640   3.870934   2.124863   1.082770   2.453609
    10  C    3.738425   2.474060   4.218729   3.733854   5.301003
    11  C    4.856238   3.718019   5.039107   4.221411   6.097782
    12  H    4.070778   2.695539   4.845766   4.596099   5.909955
    13  C    5.060790   4.214600   4.836621   3.726104   5.803232
    14  H    5.819341   4.595909   6.096086   5.302454   7.161887
    15  C    4.238797   3.727388   3.718803   2.480249   4.599231
    16  H    4.866287   4.591638   4.056452   2.702514   4.755490
    17  H    6.117949   5.295496   5.800946   4.604575   6.718395
    18  C    1.451172   2.468775   2.491411   3.741881   2.689133
    19  H    2.066556   2.989104   2.906307   4.122816   2.984662
    20  H    2.161386   2.677754   3.432237   4.577157   3.739913
    21  H    2.163224   3.384701   2.707186   4.053291   2.485795
    22  O    2.884110   3.690470   3.550033   4.679860   3.540540
    23  O    3.131060   3.421265   3.955901   4.812930   4.269362
    24  H    3.788837   3.961605   4.776207   5.677812   5.082574
                    6          7          8          9         10
     6  C    0.000000
     7  H    2.154429   0.000000
     8  C    1.418836   3.417647   0.000000
     9  H    3.418010   4.954796   2.159057   0.000000
    10  C    1.417123   2.696167   2.442116   4.597421   0.000000
    11  C    2.419501   4.056422   2.801578   4.849107   1.366306
    12  H    2.156870   2.463196   3.417630   5.537458   1.082736
    13  C    2.803047   4.843062   2.417477   4.064351   2.410098
    14  H    3.400913   4.752377   3.882564   5.912750   2.124916
    15  C    2.441387   4.592538   1.413055   2.702364   2.790794
    16  H    3.417283   5.534272   2.154476   2.471848   3.873540
    17  H    3.883898   5.906144   3.398981   4.761764   3.382083
    18  C    3.771421   2.688112   4.276148   4.614809   4.942559
    19  H    4.226565   3.161812   4.691304   4.934056   5.365948
    20  H    4.082758   2.453674   4.870239   5.525264   5.035307
    21  H    4.581604   3.705964   4.855002   4.754054   5.835110
    22  O    4.830920   3.819667   5.253259   5.415402   5.911816
    23  O    4.417486   3.380930   5.037467   5.639268   5.258342
    24  H    5.044577   3.666525   5.822391   6.546081   5.746959
                   11         12         13         14         15
    11  C    0.000000
    12  H    2.132084   0.000000
    13  C    1.412333   3.397924   0.000000
    14  H    1.081048   2.459214   2.161817   0.000000
    15  C    2.411029   3.873514   1.368134   3.383740   0.000000
    16  H    3.398176   4.956253   2.132592   4.283815   1.082758
    17  H    2.161277   4.282876   1.080932   2.480831   2.127450
    18  C    6.164240   5.047487   6.482672   7.064094   5.688984
    19  H    6.566827   5.457259   6.872017   7.454788   6.072966
    20  H    6.348702   4.911299   6.878212   7.143355   6.258617
    21  H    6.994854   6.018123   7.174902   7.937794   6.249906
    22  O    7.073260   5.987738   7.364724   7.937044   6.576663
    23  O    6.398581   5.229106   6.837084   7.159354   6.254216
    24  H    6.945445   5.544575   7.524613   7.622707   7.041577
                   16         17         18         19         20
    16  H    0.000000
    17  H    2.460730   0.000000
    18  C    6.292647   7.548283   0.000000
    19  H    6.645338   7.922458   1.108729   0.000000
    20  H    6.977619   7.958307   1.085886   1.710533   0.000000
    21  H    6.719902   8.215658   1.086438   1.666492   1.816438
    22  O    7.113701   8.388287   2.089662   0.981172   2.547149
    23  O    6.906295   7.836874   2.780852   1.884354   2.990932
    24  H    7.754821   8.531725   3.204335   2.360807   3.105753
                   21         22         23         24
    21  H    0.000000
    22  O    2.491201   0.000000
    23  O    3.546831   1.395420   0.000000
    24  H    3.961858   1.865073   0.964211   0.000000
 Stoichiometry    C11H11O2(2)
 Framework group  C1[X(C11H11O2)]
 Deg. of freedom    66
 Full point group                 C1      NOp   1
 Largest Abelian subgroup         C1      NOp   1
 Largest concise Abelian subgroup C1      NOp   1
                         Standard orientation:                         
 ---------------------------------------------------------------------
 Center     Atomic      Atomic             Coordinates (Angstroms)
 Number     Number       Type             X           Y           Z
 ---------------------------------------------------------------------
      1          6           0        1.266361    0.424278    0.703880
      2          6           0        0.363799   -0.617381    0.767050
      3          6           0        0.823532    1.680398    0.193750
      4          6           0       -0.463437    1.860630   -0.207190
      5          1           0        1.533523    2.494667    0.128330
      6          6           0       -0.979000   -0.458159    0.361230
      7          1           0        0.684888   -1.582491    1.141560
      8          6           0       -1.405699    0.800461   -0.135660
      9          1           0       -0.789526    2.818830   -0.591780
     10          6           0       -1.916122   -1.518668    0.434460
     11          6           0       -3.209092   -1.336946    0.031970
     12          1           0       -1.587143   -2.476758    0.816760
     13          6           0       -3.631180   -0.084266   -0.465340
     14          1           0       -3.914843   -2.153625    0.092100
     15          6           0       -2.748899    0.958333   -0.545070
     16          1           0       -3.067167    1.919493   -0.928790
     17          1           0       -4.654840    0.044776   -0.787650
     18          6           0        2.658151    0.241606    1.071920
     19          1           0        3.213520    0.027735    0.136450
     20          1           0        2.881049   -0.629934    1.680100
     21          1           0        3.193802    1.134415    1.382270
     22          8           0        3.730120   -0.163175   -0.675570
     23          8           0        3.061109   -1.249745   -1.240360
     24          1           0        3.626418   -1.995465   -1.007920
 ---------------------------------------------------------------------
 Rotational constants (GHZ):           1.7121075           0.4532618           0.4037541
 Standard basis: 6-31G(d,p) (6D, 7F)
 There are   250 symmetry adapted cartesian basis functions of A   symmetry.
 There are   250 symmetry adapted basis functions of A   symmetry.
   250 basis functions,   441 primitive gaussians,   250 cartesian basis functions
    47 alpha electrons       46 beta electrons
       nuclear repulsion energy       736.1398813256 Hartrees.
 NAtoms=   24 NActive=   24 NUniq=   24 SFac= 1.00D+00 NAtFMM=   60 NAOKFM=F Big=F
 Integral buffers will be    131072 words long.
 Raffenetti 2 integral format.
 Two-electron integral symmetry is turned on.
 One-electron integrals computed using PRISM.
 NBasis=   250 RedAO= T EigKep=  2.75D-04  NBF=   250
 NBsUse=   250 1.00D-06 EigRej= -1.00D+00 NBFU=   250
 ExpMin= 1.61D-01 ExpMax= 5.48D+03 ExpMxC= 8.25D+02 IAcc=1 IRadAn=         1 AccDes= 0.00D+00
 Harris functional with IExCor= 1009 and IRadAn=       1 diagonalized for initial guess.
 HarFok:  IExCor= 1009 AccDes= 0.00D+00 IRadAn=         1 IDoV= 1 UseB2=F ITyADJ=14
 ICtDFT=  3500011 ScaDFX=  1.000000  1.000000  1.000000  1.000000
 FoFCou: FMM=F IPFlag=           0 FMFlag=      100000 FMFlg1=           0
         NFxFlg=           0 DoJE=T BraDBF=F KetDBF=T FulRan=T
         wScrn=  0.000000 ICntrl=       500 IOpCl=  0 I1Cent=   200000004 NGrid=           0
         NMat0=    1 NMatS0=      1 NMatT0=    0 NMatD0=    1 NMtDS0=    0 NMtDT0=    0
 Petite list used in FoFCou.
 Initial guess <Sx>= 0.0000 <Sy>= 0.0000 <Sz>= 0.5000 <S**2>= 0.7500 S= 0.5000
 Requested convergence on RMS density matrix=1.00D-08 within 128 cycles.
 Requested convergence on MAX density matrix=1.00D-06.
 Requested convergence on             energy=1.00D-06.
 No special actions if energy rises.
 SCF Done:  E(UM062X) =  -575.789656081     A.U. after   18 cycles
            NFock= 18  Conv=0.92D-08     -V/T= 2.0071
 <Sx>= 0.0000 <Sy>= 0.0000 <Sz>= 0.5000 <S**2>= 0.7662 S= 0.5081
 <L.S>= 0.000000000000E+00
 Annihilation of the first spin contaminant:
 S**2 before annihilation     0.7662,   after     0.7502
 DoSCS=F DFT=T ScalE2(SS,OS)=  1.000000  1.000000
 Range of M.O.s used for correlation:     1   250
 NBasis=   250 NAE=    47 NBE=    46 NFC=     0 NFV=     0
 NROrb=    250 NOA=    47 NOB=    46 NVA=   203 NVB=   204
 Symmetrizing basis deriv contribution to polar:
 IMax=3 JMax=2 DiffMx= 0.00D+00
 G2DrvN: will do    25 centers at a time, making    1 passes.
 Calling FoFCou, ICntrl=  3107 FMM=F I1Cent=   0 AccDes= 0.00D+00.
 End of G2Drv F.D. properties file   721 does not exist.
 End of G2Drv F.D. properties file   722 does not exist.
 End of G2Drv F.D. properties file   788 does not exist.
          IDoAtm=111111111111111111111111
          Differentiating once with respect to nuclear coordinates.
 Keep R1 and R2 ints in memory in canonical form, NReq=1005959319.
          There are    75 degrees of freedom in the 1st order CPHF.  IDoFFX=6 NUNeed=     0.
     69 vectors produced by pass  0 Test12= 2.52D-14 1.33D-09 XBig12= 2.07D-01 1.31D-01.
 AX will form    69 AO Fock derivatives at one time.
     69 vectors produced by pass  1 Test12= 2.52D-14 1.33D-09 XBig12= 2.94D-02 4.05D-02.
     69 vectors produced by pass  2 Test12= 2.52D-14 1.33D-09 XBig12= 1.71D-03 9.97D-03.
     69 vectors produced by pass  3 Test12= 2.52D-14 1.33D-09 XBig12= 4.81D-05 1.84D-03.
     69 vectors produced by pass  4 Test12= 2.52D-14 1.33D-09 XBig12= 6.67D-07 1.15D-04.
     69 vectors produced by pass  5 Test12= 2.52D-14 1.33D-09 XBig12= 4.62D-09 7.90D-06.
     68 vectors produced by pass  6 Test12= 2.52D-14 1.33D-09 XBig12= 2.92D-11 4.79D-07.
     30 vectors produced by pass  7 Test12= 2.52D-14 1.33D-09 XBig12= 1.58D-13 2.87D-08.
      1 vectors produced by pass  8 Test12= 2.52D-14 1.33D-09 XBig12= 8.74D-16 2.22D-09.
 InvSVY:  IOpt=1 It=  1 EMax= 8.33D-16
 Solved reduced A of dimension   513 with    75 vectors.
 End of Minotr F.D. properties file   721 does not exist.
 End of Minotr F.D. properties file   722 does not exist.
 End of Minotr F.D. properties file   788 does not exist.

 **********************************************************************

            Population analysis using the SCF density.

 **********************************************************************

 Orbital symmetries:
 Alpha Orbitals:
       Occupied  (A) (A) (A) (A) (A) (A) (A) (A) (A) (A) (A) (A)
                 (A) (A) (A) (A) (A) (A) (A) (A) (A) (A) (A) (A)
                 (A) (A) (A) (A) (A) (A) (A) (A) (A) (A) (A) (A)
                 (A) (A) (A) (A) (A) (A) (A) (A) (A) (A) (A)
       Virtual   (A) (A) (A) (A) (A) (A) (A) (A) (A) (A) (A) (A)
                 (A) (A) (A) (A) (A) (A) (A) (A) (A) (A) (A) (A)
                 (A) (A) (A) (A) (A) (A) (A) (A) (A) (A) (A) (A)
                 (A) (A) (A) (A) (A) (A) (A) (A) (A) (A) (A) (A)
                 (A) (A) (A) (A) (A) (A) (A) (A) (A) (A) (A) (A)
                 (A) (A) (A) (A) (A) (A) (A) (A) (A) (A) (A) (A)
                 (A) (A) (A) (A) (A) (A) (A) (A) (A) (A) (A) (A)
                 (A) (A) (A) (A) (A) (A) (A) (A) (A) (A) (A) (A)
                 (A) (A) (A) (A) (A) (A) (A) (A) (A) (A) (A) (A)
                 (A) (A) (A) (A) (A) (A) (A) (A) (A) (A) (A) (A)
                 (A) (A) (A) (A) (A) (A) (A) (A) (A) (A) (A) (A)
                 (A) (A) (A) (A) (A) (A) (A) (A) (A) (A) (A) (A)
                 (A) (A) (A) (A) (A) (A) (A) (A) (A) (A) (A) (A)
                 (A) (A) (A) (A) (A) (A) (A) (A) (A) (A) (A) (A)
                 (A) (A) (A) (A) (A) (A) (A) (A) (A) (A) (A) (A)
                 (A) (A) (A) (A) (A) (A) (A) (A) (A) (A) (A) (A)
                 (A) (A) (A) (A) (A) (A) (A) (A) (A) (A) (A)
 Beta  Orbitals:
       Occupied  (A) (A) (A) (A) (A) (A) (A) (A) (A) (A) (A) (A)
                 (A) (A) (A) (A) (A) (A) (A) (A) (A) (A) (A) (A)
                 (A) (A) (A) (A) (A) (A) (A) (A) (A) (A) (A) (A)
                 (A) (A) (A) (A) (A) (A) (A) (A) (A) (A)
       Virtual   (A) (A) (A) (A) (A) (A) (A) (A) (A) (A) (A) (A)
                 (A) (A) (A) (A) (A) (A) (A) (A) (A) (A) (A) (A)
                 (A) (A) (A) (A) (A) (A) (A) (A) (A) (A) (A) (A)
                 (A) (A) (A) (A) (A) (A) (A) (A) (A) (A) (A) (A)
                 (A) (A) (A) (A) (A) (A) (A) (A) (A) (A) (A) (A)
                 (A) (A) (A) (A) (A) (A) (A) (A) (A) (A) (A) (A)
                 (A) (A) (A) (A) (A) (A) (A) (A) (A) (A) (A) (A)
                 (A) (A) (A) (A) (A) (A) (A) (A) (A) (A) (A) (A)
                 (A) (A) (A) (A) (A) (A) (A) (A) (A) (A) (A) (A)
                 (A) (A) (A) (A) (A) (A) (A) (A) (A) (A) (A) (A)
                 (A) (A) (A) (A) (A) (A) (A) (A) (A) (A) (A) (A)
                 (A) (A) (A) (A) (A) (A) (A) (A) (A) (A) (A) (A)
                 (A) (A) (A) (A) (A) (A) (A) (A) (A) (A) (A) (A)
                 (A) (A) (A) (A) (A) (A) (A) (A) (A) (A) (A) (A)
                 (A) (A) (A) (A) (A) (A) (A) (A) (A) (A) (A) (A)
                 (A) (A) (A) (A) (A) (A) (A) (A) (A) (A) (A) (A)
                 (A) (A) (A) (A) (A) (A) (A) (A) (A) (A) (A) (A)
 The electronic state is 2-A.
 Alpha  occ. eigenvalues --  -19.69683 -19.68353 -10.56136 -10.55721 -10.55647
 Alpha  occ. eigenvalues --  -10.55314 -10.55117 -10.55107 -10.55083 -10.55023
 Alpha  occ. eigenvalues --  -10.54996 -10.54963 -10.54791  -1.27207  -1.02284
 Alpha  occ. eigenvalues --   -0.98197  -0.93139  -0.87709  -0.85913  -0.82045
 Alpha  occ. eigenvalues --   -0.78606  -0.70607  -0.68716  -0.67932  -0.62910
 Alpha  occ. eigenvalues --   -0.58923  -0.58740  -0.58055  -0.55807  -0.52445
 Alpha  occ. eigenvalues --   -0.51596  -0.50708  -0.48952  -0.48059  -0.46802
 Alpha  occ. eigenvalues --   -0.46317  -0.45744  -0.42570  -0.41363  -0.39441
 Alpha  occ. eigenvalues --   -0.38846  -0.38393  -0.36530  -0.34626  -0.31400
 Alpha  occ. eigenvalues --   -0.27517  -0.23597
 Alpha virt. eigenvalues --   -0.00233   0.03026   0.07267   0.11478   0.13876
 Alpha virt. eigenvalues --    0.14527   0.15346   0.16163   0.17030   0.19438
 Alpha virt. eigenvalues --    0.19886   0.21886   0.22183   0.23477   0.25346
 Alpha virt. eigenvalues --    0.26078   0.27632   0.31200   0.34140   0.35465
 Alpha virt. eigenvalues --    0.36098   0.37977   0.38995   0.39089   0.42223
 Alpha virt. eigenvalues --    0.49961   0.53593   0.53956   0.56021   0.56939
 Alpha virt. eigenvalues --    0.57609   0.58724   0.60198   0.60985   0.62181
 Alpha virt. eigenvalues --    0.62634   0.63335   0.64835   0.65537   0.66301
 Alpha virt. eigenvalues --    0.67007   0.67144   0.67886   0.68825   0.70119
 Alpha virt. eigenvalues --    0.72477   0.73677   0.75922   0.79267   0.81301
 Alpha virt. eigenvalues --    0.83535   0.84617   0.86364   0.87809   0.88410
 Alpha virt. eigenvalues --    0.88510   0.88798   0.90297   0.91160   0.91753
 Alpha virt. eigenvalues --    0.92537   0.94099   0.94549   0.97044   0.98728
 Alpha virt. eigenvalues --    0.99714   1.00311   1.01019   1.04948   1.05292
 Alpha virt. eigenvalues --    1.06248   1.07573   1.09649   1.10272   1.13692
 Alpha virt. eigenvalues --    1.14660   1.17462   1.18316   1.21612   1.24260
 Alpha virt. eigenvalues --    1.26936   1.29283   1.29498   1.33000   1.34652
 Alpha virt. eigenvalues --    1.35771   1.38306   1.39495   1.41172   1.43724
 Alpha virt. eigenvalues --    1.46615   1.46999   1.47274   1.48323   1.49625
 Alpha virt. eigenvalues --    1.50271   1.52731   1.54819   1.55838   1.57474
 Alpha virt. eigenvalues --    1.62325   1.71870   1.74307   1.77525   1.79480
 Alpha virt. eigenvalues --    1.80354   1.84073   1.86579   1.86684   1.89603
 Alpha virt. eigenvalues --    1.91877   1.92830   1.93423   1.95025   1.95926
 Alpha virt. eigenvalues --    1.96799   1.97464   2.00819   2.02982   2.04800
 Alpha virt. eigenvalues --    2.05811   2.07431   2.09261   2.11970   2.14432
 Alpha virt. eigenvalues --    2.15476   2.16780   2.17509   2.20742   2.22179
 Alpha virt. eigenvalues --    2.24790   2.26328   2.28195   2.28863   2.31303
 Alpha virt. eigenvalues --    2.33182   2.34662   2.35683   2.37554   2.41463
 Alpha virt. eigenvalues --    2.41746   2.43775   2.44460   2.44687   2.47222
 Alpha virt. eigenvalues --    2.48044   2.49208   2.51037   2.54190   2.55993
 Alpha virt. eigenvalues --    2.57006   2.59399   2.60647   2.61159   2.63292
 Alpha virt. eigenvalues --    2.63728   2.65235   2.67873   2.70180   2.71570
 Alpha virt. eigenvalues --    2.74281   2.77694   2.78108   2.79252   2.83263
 Alpha virt. eigenvalues --    2.84997   2.87088   2.88972   2.93956   2.98658
 Alpha virt. eigenvalues --    3.03049   3.07131   3.09060   3.10274   3.15966
 Alpha virt. eigenvalues --    3.18145   3.20262   3.24014   3.24244   3.27264
 Alpha virt. eigenvalues --    3.33620   3.36113   3.38887   3.42885   3.47087
 Alpha virt. eigenvalues --    3.48830   3.52574   3.75176   3.75952   3.89338
 Alpha virt. eigenvalues --    4.05140   4.06207   4.13718   4.17049   4.17614
 Alpha virt. eigenvalues --    4.21194   4.26311   4.37706   4.44558   4.52272
 Alpha virt. eigenvalues --    4.58331   4.71124   4.95539
  Beta  occ. eigenvalues --  -19.69590 -19.67427 -10.56226 -10.55718 -10.55635
  Beta  occ. eigenvalues --  -10.55184 -10.55123 -10.55092 -10.55066 -10.55007
  Beta  occ. eigenvalues --  -10.55002 -10.54961 -10.54156  -1.25489  -1.00224
  Beta  occ. eigenvalues --   -0.98028  -0.92867  -0.87431  -0.85347  -0.81856
  Beta  occ. eigenvalues --   -0.77350  -0.70462  -0.68168  -0.67836  -0.60999
  Beta  occ. eigenvalues --   -0.58784  -0.57887  -0.56541  -0.55348  -0.51886
  Beta  occ. eigenvalues --   -0.51353  -0.49870  -0.48590  -0.47917  -0.46396
  Beta  occ. eigenvalues --   -0.45980  -0.45232  -0.42385  -0.40106  -0.39170
  Beta  occ. eigenvalues --   -0.38386  -0.37259  -0.35148  -0.33988  -0.29300
  Beta  occ. eigenvalues --   -0.26427
  Beta virt. eigenvalues --   -0.05720   0.00457   0.04261   0.07623   0.11769
  Beta virt. eigenvalues --    0.14190   0.14735   0.15769   0.16268   0.17355
  Beta virt. eigenvalues --    0.19846   0.20371   0.21957   0.22237   0.23648
  Beta virt. eigenvalues --    0.25466   0.26300   0.27799   0.31434   0.34278
  Beta virt. eigenvalues --    0.35516   0.36148   0.38383   0.39166   0.39740
  Beta virt. eigenvalues --    0.42414   0.50131   0.54074   0.55060   0.56158
  Beta virt. eigenvalues --    0.57383   0.57709   0.58971   0.60358   0.61121
  Beta virt. eigenvalues --    0.62551   0.63261   0.63527   0.65239   0.65709
  Beta virt. eigenvalues --    0.66400   0.67104   0.67351   0.68083   0.69088
  Beta virt. eigenvalues --    0.70277   0.72548   0.73946   0.75979   0.80083
  Beta virt. eigenvalues --    0.81424   0.83770   0.84961   0.87154   0.88035
  Beta virt. eigenvalues --    0.88633   0.88647   0.88974   0.90556   0.91603
  Beta virt. eigenvalues --    0.93084   0.93429   0.94406   0.95293   0.97471
  Beta virt. eigenvalues --    0.98841   0.99888   1.00729   1.02649   1.05178
  Beta virt. eigenvalues --    1.05706   1.06403   1.08340   1.09800   1.10547
  Beta virt. eigenvalues --    1.13939   1.14921   1.17723   1.18851   1.21689
  Beta virt. eigenvalues --    1.24469   1.27095   1.29562   1.29793   1.33213
  Beta virt. eigenvalues --    1.35392   1.36390   1.38567   1.39692   1.41475
  Beta virt. eigenvalues --    1.44003   1.46803   1.47226   1.47509   1.48703
  Beta virt. eigenvalues --    1.49827   1.50540   1.52922   1.55201   1.56168
  Beta virt. eigenvalues --    1.57676   1.62748   1.72495   1.74892   1.78451
  Beta virt. eigenvalues --    1.79699   1.80554   1.84376   1.86856   1.87791
  Beta virt. eigenvalues --    1.89887   1.92094   1.93019   1.93666   1.95292
  Beta virt. eigenvalues --    1.96272   1.96948   1.97745   2.01084   2.03223
  Beta virt. eigenvalues --    2.04883   2.06355   2.07587   2.09677   2.12583
  Beta virt. eigenvalues --    2.14664   2.15896   2.17583   2.18020   2.21165
  Beta virt. eigenvalues --    2.22495   2.25427   2.26534   2.28790   2.29864
  Beta virt. eigenvalues --    2.31521   2.33343   2.35173   2.36177   2.37767
  Beta virt. eigenvalues --    2.41542   2.42043   2.43975   2.44563   2.45250
  Beta virt. eigenvalues --    2.47458   2.48171   2.49405   2.51469   2.54512
  Beta virt. eigenvalues --    2.56441   2.57319   2.59592   2.60800   2.61315
  Beta virt. eigenvalues --    2.63559   2.63851   2.65405   2.67979   2.70412
  Beta virt. eigenvalues --    2.71848   2.74523   2.77894   2.78360   2.79600
  Beta virt. eigenvalues --    2.83931   2.85392   2.87247   2.89160   2.94494
  Beta virt. eigenvalues --    2.99056   3.03343   3.08371   3.10487   3.10684
  Beta virt. eigenvalues --    3.16272   3.18745   3.20926   3.24177   3.24505
  Beta virt. eigenvalues --    3.27390   3.33909   3.37915   3.39474   3.42871
  Beta virt. eigenvalues --    3.47605   3.48917   3.54490   3.75322   3.76282
  Beta virt. eigenvalues --    3.89557   4.06032   4.09877   4.13905   4.17173
  Beta virt. eigenvalues --    4.17794   4.21316   4.27000   4.37876   4.44630
  Beta virt. eigenvalues --    4.52585   4.59861   4.72438   4.95896
          Condensed to atoms (all electrons):
               1          2          3          4          5          6
     1  C    4.752807   0.530767   0.498751  -0.025948  -0.041362  -0.015163
     2  C    0.530767   5.060384  -0.031662  -0.070902   0.004519   0.454224
     3  C    0.498751  -0.031662   4.905561   0.537998   0.372067  -0.040874
     4  C   -0.025948  -0.070902   0.537998   4.975843  -0.028465  -0.030647
     5  H   -0.041362   0.004519   0.372067  -0.028465   0.577840   0.000948
     6  C   -0.015163   0.454224  -0.040874  -0.030647   0.000948   4.711799
     7  H   -0.042030   0.366801   0.004818   0.000407  -0.000172  -0.035383
     8  C   -0.029274  -0.042696  -0.025510   0.468952   0.002608   0.539982
     9  H    0.003089   0.000928  -0.033030   0.369559  -0.004733   0.003896
    10  C    0.007441  -0.078313  -0.000121   0.012526   0.000013   0.471465
    11  C   -0.000361   0.007492   0.000053  -0.000504  -0.000000  -0.018163
    12  H    0.000232  -0.006936   0.000017  -0.000184  -0.000000  -0.039764
    13  C    0.000049  -0.000523  -0.000407   0.007711   0.000003  -0.037883
    14  H    0.000003  -0.000194  -0.000000   0.000011   0.000000   0.002541
    15  C   -0.000357   0.013651   0.008226  -0.083333  -0.000191  -0.036090
    16  H    0.000015  -0.000189   0.000232  -0.006693  -0.000010   0.004143
    17  H   -0.000000   0.000012   0.000003  -0.000189  -0.000000   0.001082
    18  C    0.343282  -0.055667  -0.060596   0.006223  -0.006743   0.005157
    19  H   -0.015253  -0.002957  -0.001376   0.000058   0.000033  -0.000076
    20  H   -0.032805  -0.003283   0.003682  -0.000157   0.000039   0.000162
    21  H   -0.026222   0.003129  -0.003444   0.000159   0.003836  -0.000097
    22  O   -0.005131  -0.001252   0.002335   0.000046   0.000035   0.000034
    23  O   -0.003290   0.005639  -0.000648  -0.000014   0.000000  -0.000134
    24  H    0.000087  -0.000027   0.000034  -0.000000   0.000000   0.000011
               7          8          9         10         11         12
     1  C   -0.042030  -0.029274   0.003089   0.007441  -0.000361   0.000232
     2  C    0.366801  -0.042696   0.000928  -0.078313   0.007492  -0.006936
     3  C    0.004818  -0.025510  -0.033030  -0.000121   0.000053   0.000017
     4  C    0.000407   0.468952   0.369559   0.012526  -0.000504  -0.000184
     5  H   -0.000172   0.002608  -0.004733   0.000013  -0.000000  -0.000000
     6  C   -0.035383   0.539982   0.003896   0.471465  -0.018163  -0.039764
     7  H    0.595920   0.004484   0.000021  -0.007168   0.000187   0.005525
     8  C    0.004484   4.715235  -0.038912  -0.038453  -0.037717   0.004283
     9  H    0.000021  -0.038912   0.579193  -0.000190   0.000015   0.000002
    10  C   -0.007168  -0.038453  -0.000190   4.967328   0.548802   0.372782
    11  C    0.000187  -0.037717   0.000015   0.548802   4.853402  -0.038401
    12  H    0.005525   0.004283   0.000002   0.372782  -0.038401   0.585353
    13  C    0.000017  -0.019076   0.000210  -0.032683   0.506405   0.004066
    14  H   -0.000010   0.001089  -0.000000  -0.031217   0.374619  -0.005017
    15  C   -0.000194   0.477762  -0.006490  -0.064128  -0.031589   0.000580
    16  H    0.000002  -0.039196   0.005166   0.000606   0.004033   0.000019
    17  H   -0.000000   0.002578  -0.000010   0.003731  -0.036985  -0.000174
    18  C   -0.007524   0.000900  -0.000194  -0.000243   0.000003  -0.000007
    19  H   -0.000043   0.000029  -0.000002  -0.000001   0.000000  -0.000000
    20  H    0.004800   0.000002   0.000002   0.000001  -0.000000   0.000001
    21  H    0.000047  -0.000005  -0.000006   0.000002  -0.000000   0.000000
    22  O   -0.000050  -0.000007   0.000000   0.000000  -0.000000   0.000000
    23  O    0.000583   0.000016   0.000000  -0.000006   0.000000  -0.000001
    24  H    0.000027  -0.000001   0.000000  -0.000000  -0.000000   0.000000
              13         14         15         16         17         18
     1  C    0.000049   0.000003  -0.000357   0.000015  -0.000000   0.343282
     2  C   -0.000523  -0.000194   0.013651  -0.000189   0.000012  -0.055667
     3  C   -0.000407  -0.000000   0.008226   0.000232   0.000003  -0.060596
     4  C    0.007711   0.000011  -0.083333  -0.006693  -0.000189   0.006223
     5  H    0.000003   0.000000  -0.000191  -0.000010  -0.000000  -0.006743
     6  C   -0.037883   0.002541  -0.036090   0.004143   0.001082   0.005157
     7  H    0.000017  -0.000010  -0.000194   0.000002  -0.000000  -0.007524
     8  C   -0.019076   0.001089   0.477762  -0.039196   0.002578   0.000900
     9  H    0.000210  -0.000000  -0.006490   0.005166  -0.000010  -0.000194
    10  C   -0.032683  -0.031217  -0.064128   0.000606   0.003731  -0.000243
    11  C    0.506405   0.374619  -0.031589   0.004033  -0.036985   0.000003
    12  H    0.004066  -0.005017   0.000580   0.000019  -0.000174  -0.000007
    13  C    4.856712  -0.036913   0.543999  -0.038285   0.374908  -0.000000
    14  H   -0.036913   0.574307   0.003729  -0.000174  -0.004492  -0.000000
    15  C    0.543999   0.003729   4.971217   0.373127  -0.031271   0.000002
    16  H   -0.038285  -0.000174   0.373127   0.582634  -0.004961   0.000000
    17  H    0.374908  -0.004492  -0.031271  -0.004961   0.574045  -0.000000
    18  C   -0.000000  -0.000000   0.000002   0.000000  -0.000000   5.498520
    19  H   -0.000000   0.000000  -0.000000  -0.000000  -0.000000   0.211249
    20  H    0.000000  -0.000000  -0.000000   0.000000  -0.000000   0.364643
    21  H    0.000000   0.000000  -0.000000   0.000000  -0.000000   0.367132
    22  O    0.000000  -0.000000  -0.000000   0.000000   0.000000  -0.183816
    23  O   -0.000000   0.000000   0.000000  -0.000000  -0.000000   0.004813
    24  H    0.000000  -0.000000  -0.000000   0.000000   0.000000  -0.000826
              19         20         21         22         23         24
     1  C   -0.015253  -0.032805  -0.026222  -0.005131  -0.003290   0.000087
     2  C   -0.002957  -0.003283   0.003129  -0.001252   0.005639  -0.000027
     3  C   -0.001376   0.003682  -0.003444   0.002335  -0.000648   0.000034
     4  C    0.000058  -0.000157   0.000159   0.000046  -0.000014  -0.000000
     5  H    0.000033   0.000039   0.003836   0.000035   0.000000   0.000000
     6  C   -0.000076   0.000162  -0.000097   0.000034  -0.000134   0.000011
     7  H   -0.000043   0.004800   0.000047  -0.000050   0.000583   0.000027
     8  C    0.000029   0.000002  -0.000005  -0.000007   0.000016  -0.000001
     9  H   -0.000002   0.000002  -0.000006   0.000000   0.000000   0.000000
    10  C   -0.000001   0.000001   0.000002   0.000000  -0.000006  -0.000000
    11  C    0.000000  -0.000000  -0.000000  -0.000000   0.000000  -0.000000
    12  H   -0.000000   0.000001   0.000000   0.000000  -0.000001   0.000000
    13  C   -0.000000   0.000000   0.000000   0.000000  -0.000000   0.000000
    14  H    0.000000  -0.000000   0.000000  -0.000000   0.000000  -0.000000
    15  C   -0.000000  -0.000000  -0.000000  -0.000000   0.000000  -0.000000
    16  H   -0.000000   0.000000   0.000000   0.000000  -0.000000   0.000000
    17  H   -0.000000  -0.000000  -0.000000   0.000000  -0.000000   0.000000
    18  C    0.211249   0.364643   0.367132  -0.183816   0.004813  -0.000826
    19  H    0.313255  -0.008473  -0.015070   0.145292  -0.018047  -0.000744
    20  H   -0.008473   0.550081  -0.022576  -0.003276  -0.000010   0.001031
    21  H   -0.015070  -0.022576   0.538053  -0.001514   0.001189  -0.000063
    22  O    0.145292  -0.003276  -0.001514   8.321583   0.063838  -0.027985
    23  O   -0.018047  -0.000010   0.001189   0.063838   8.008441   0.278715
    24  H   -0.000744   0.001031  -0.000063  -0.027985   0.278715   0.397184
          Atomic-Atomic Spin Densities.
               1          2          3          4          5          6
     1  C   -0.108387   0.009090   0.008100   0.002676   0.000318   0.001067
     2  C    0.009090   0.191258   0.002455  -0.000141   0.000021  -0.001605
     3  C    0.008100   0.002455   0.066908  -0.002055  -0.000056  -0.000016
     4  C    0.002676  -0.000141  -0.002055  -0.056019   0.000171   0.000325
     5  H    0.000318   0.000021  -0.000056   0.000171  -0.003136  -0.000002
     6  C    0.001067  -0.001605  -0.000016   0.000325  -0.000002  -0.050718
     7  H    0.000221   0.000879   0.000013  -0.000026   0.000002   0.000120
     8  C   -0.000504  -0.005475  -0.002853   0.002991   0.000029   0.000397
     9  H   -0.000043   0.000009  -0.000100   0.000098  -0.000023  -0.000033
    10  C   -0.000100  -0.004677  -0.000025  -0.000031  -0.000000   0.000794
    11  C    0.000006   0.000033  -0.000000  -0.000003   0.000000   0.000946
    12  H   -0.000007  -0.000090   0.000000   0.000001   0.000000   0.000255
    13  C    0.000000   0.000085   0.000006  -0.000046  -0.000000   0.000049
    14  H    0.000000  -0.000001  -0.000000   0.000000   0.000000  -0.000017
    15  C    0.000004  -0.000012  -0.000043   0.001656   0.000001   0.000643
    16  H   -0.000000  -0.000001   0.000003   0.000058   0.000000  -0.000031
    17  H    0.000000  -0.000000  -0.000000   0.000001   0.000000  -0.000005
    18  C   -0.044731  -0.013503  -0.008465  -0.000019   0.000248  -0.000083
    19  H   -0.002237  -0.000140  -0.000616  -0.000008   0.000019   0.000006
    20  H    0.003920  -0.000874  -0.000056   0.000010  -0.000016  -0.000016
    21  H    0.003578  -0.000255  -0.000392   0.000004  -0.000236   0.000011
    22  O    0.013954   0.001368   0.001059   0.000004  -0.000063   0.000008
    23  O   -0.002577  -0.001463  -0.000153   0.000000   0.000003  -0.000009
    24  H   -0.000003   0.000027   0.000001   0.000000  -0.000000  -0.000000
               7          8          9         10         11         12
     1  C    0.000221  -0.000504  -0.000043  -0.000100   0.000006  -0.000007
     2  C    0.000879  -0.005475   0.000009  -0.004677   0.000033  -0.000090
     3  C    0.000013  -0.002853  -0.000100  -0.000025  -0.000000   0.000000
     4  C   -0.000026   0.002991   0.000098  -0.000031  -0.000003   0.000001
     5  H    0.000002   0.000029  -0.000023  -0.000000   0.000000   0.000000
     6  C    0.000120   0.000397  -0.000033   0.000794   0.000946   0.000255
     7  H   -0.009064   0.000051  -0.000000  -0.000174  -0.000001  -0.000053
     8  C    0.000051   0.078176  -0.000159   0.001687   0.000050   0.000020
     9  H   -0.000000  -0.000159   0.002105  -0.000002   0.000000  -0.000000
    10  C   -0.000174   0.001687  -0.000002   0.051678   0.000343   0.000065
    11  C   -0.000001   0.000050   0.000000   0.000343  -0.030817   0.000110
    12  H   -0.000053   0.000020  -0.000000   0.000065   0.000110  -0.002471
    13  C   -0.000001  -0.003397   0.000001  -0.002737  -0.000365   0.000011
    14  H   -0.000000   0.000001  -0.000000  -0.000100   0.000134  -0.000007
    15  C    0.000004  -0.000557   0.000075   0.000085   0.000532  -0.000002
    16  H   -0.000000  -0.000206   0.000018   0.000002  -0.000014  -0.000000
    17  H   -0.000000   0.000023   0.000000   0.000005   0.000125   0.000001
    18  C    0.000068   0.000170  -0.000002   0.000011   0.000000  -0.000000
    19  H    0.000050   0.000011  -0.000000  -0.000000   0.000000  -0.000000
    20  H   -0.000269   0.000000  -0.000000   0.000000   0.000000  -0.000000
    21  H   -0.000022   0.000001  -0.000000  -0.000000   0.000000  -0.000000
    22  O   -0.000055  -0.000006  -0.000000  -0.000000   0.000000  -0.000000
    23  O    0.000044   0.000005   0.000000   0.000002  -0.000000   0.000000
    24  H   -0.000002  -0.000000   0.000000  -0.000000   0.000000  -0.000000
              13         14         15         16         17         18
     1  C    0.000000   0.000000   0.000004  -0.000000   0.000000  -0.044731
     2  C    0.000085  -0.000001  -0.000012  -0.000001  -0.000000  -0.013503
     3  C    0.000006  -0.000000  -0.000043   0.000003  -0.000000  -0.008465
     4  C   -0.000046   0.000000   0.001656   0.000058   0.000001  -0.000019
     5  H   -0.000000   0.000000   0.000001   0.000000   0.000000   0.000248
     6  C    0.000049  -0.000017   0.000643  -0.000031  -0.000005  -0.000083
     7  H   -0.000001  -0.000000   0.000004  -0.000000  -0.000000   0.000068
     8  C   -0.003397   0.000001  -0.000557  -0.000206   0.000023   0.000170
     9  H    0.000001  -0.000000   0.000075   0.000018   0.000000  -0.000002
    10  C   -0.002737  -0.000100   0.000085   0.000002   0.000005   0.000011
    11  C   -0.000365   0.000134   0.000532  -0.000014   0.000125   0.000000
    12  H    0.000011  -0.000007  -0.000002  -0.000000   0.000001  -0.000000
    13  C    0.064577  -0.000144   0.000778  -0.000086   0.000132  -0.000000
    14  H   -0.000144   0.001143  -0.000009  -0.000001  -0.000002  -0.000000
    15  C    0.000778  -0.000009  -0.038638   0.000159   0.000091   0.000000
    16  H   -0.000086  -0.000001   0.000159   0.001352   0.000003  -0.000000
    17  H    0.000132  -0.000002   0.000091   0.000003  -0.003123   0.000000
    18  C   -0.000000  -0.000000   0.000000  -0.000000   0.000000   0.760165
    19  H   -0.000000   0.000000   0.000000  -0.000000   0.000000   0.071209
    20  H   -0.000000  -0.000000   0.000000   0.000000   0.000000  -0.012141
    21  H   -0.000000  -0.000000   0.000000  -0.000000  -0.000000  -0.012505
    22  O    0.000000  -0.000000   0.000000  -0.000000   0.000000  -0.182145
    23  O   -0.000000   0.000000  -0.000000   0.000000  -0.000000   0.018874
    24  H    0.000000  -0.000000  -0.000000  -0.000000  -0.000000  -0.000458
              19         20         21         22         23         24
     1  C   -0.002237   0.003920   0.003578   0.013954  -0.002577  -0.000003
     2  C   -0.000140  -0.000874  -0.000255   0.001368  -0.001463   0.000027
     3  C   -0.000616  -0.000056  -0.000392   0.001059  -0.000153   0.000001
     4  C   -0.000008   0.000010   0.000004   0.000004   0.000000   0.000000
     5  H    0.000019  -0.000016  -0.000236  -0.000063   0.000003  -0.000000
     6  C    0.000006  -0.000016   0.000011   0.000008  -0.000009  -0.000000
     7  H    0.000050  -0.000269  -0.000022  -0.000055   0.000044  -0.000002
     8  C    0.000011   0.000000   0.000001  -0.000006   0.000005  -0.000000
     9  H   -0.000000  -0.000000  -0.000000  -0.000000   0.000000   0.000000
    10  C   -0.000000   0.000000  -0.000000  -0.000000   0.000002  -0.000000
    11  C    0.000000   0.000000   0.000000   0.000000  -0.000000   0.000000
    12  H   -0.000000  -0.000000  -0.000000  -0.000000   0.000000  -0.000000
    13  C   -0.000000  -0.000000  -0.000000   0.000000  -0.000000   0.000000
    14  H    0.000000  -0.000000  -0.000000  -0.000000   0.000000  -0.000000
    15  C    0.000000   0.000000   0.000000   0.000000  -0.000000  -0.000000
    16  H   -0.000000   0.000000  -0.000000  -0.000000   0.000000  -0.000000
    17  H    0.000000   0.000000  -0.000000   0.000000  -0.000000  -0.000000
    18  C    0.071209  -0.012141  -0.012505  -0.182145   0.018874  -0.000458
    19  H   -0.037782   0.001696   0.002061  -0.055962   0.009979  -0.000125
    20  H    0.001696  -0.024474   0.002672   0.006259  -0.001025  -0.000028
    21  H    0.002061   0.002672  -0.024679   0.005853  -0.000272   0.000004
    22  O   -0.055962   0.006259   0.005853   0.579940  -0.039872   0.000473
    23  O    0.009979  -0.001025  -0.000272  -0.039872   0.043436  -0.000139
    24  H   -0.000125  -0.000028   0.000004   0.000473  -0.000139  -0.000845
 Mulliken charges and spin densities:
               1          2
     1  C    0.100673  -0.115655
     2  C   -0.152943   0.176988
     3  C   -0.136109   0.063715
     4  C   -0.132455  -0.050353
     5  H    0.119735  -0.002719
     6  C    0.058830  -0.047917
     7  H    0.108936  -0.008215
     8  C    0.052928   0.070452
     9  H    0.121485   0.001944
    10  C   -0.132173   0.046827
    11  C   -0.131289  -0.028920
    12  H    0.117625  -0.002168
    13  C   -0.128311   0.058863
    14  H    0.121718   0.000997
    15  C   -0.138649  -0.035232
    16  H    0.119530   0.001255
    17  H    0.121724  -0.002749
    18  C   -0.486307   0.576693
    19  H    0.392126  -0.011838
    20  H    0.146133  -0.024342
    21  H    0.155451  -0.024177
    22  O   -0.310132   0.330815
    23  O   -0.341084   0.026834
    24  H    0.352558  -0.001097
 Sum of Mulliken charges =  -0.00000   1.00000
 Mulliken charges and spin densities with hydrogens summed into heavy atoms:
               1          2
     1  C    0.100673  -0.115655
     2  C   -0.044007   0.168772
     3  C   -0.016374   0.060996
     4  C   -0.010970  -0.048409
     6  C    0.058830  -0.047917
     8  C    0.052928   0.070452
    10  C   -0.014548   0.044659
    11  C   -0.009571  -0.027923
    13  C   -0.006587   0.056114
    15  C   -0.019119  -0.033977
    18  C   -0.184722   0.528173
    22  O    0.081993   0.318977
    23  O    0.011474   0.025737
 APT charges:
               1
     1  C   -0.085585
     2  C   -0.465257
     3  C   -0.533202
     4  C   -0.461747
     5  H    0.572627
     6  C   -0.439072
     7  H    0.416079
     8  C   -0.409338
     9  H    0.579618
    10  C   -0.554710
    11  C   -0.411929
    12  H    0.444340
    13  C   -0.461256
    14  H    0.787857
    15  C   -0.518291
    16  H    0.588317
    17  H    0.859337
    18  C   -0.948803
    19  H    0.192149
    20  H    0.450589
    21  H    0.584207
    22  O   -0.246095
    23  O   -0.899030
    24  H    0.959191
 Sum of APT charges =  -0.00000
 APT charges with hydrogens summed into heavy atoms:
               1
     1  C   -0.085585
     2  C   -0.049177
     3  C    0.039426
     4  C    0.117871
     6  C   -0.439072
     8  C   -0.409338
    10  C   -0.110370
    11  C    0.375928
    13  C    0.398081
    15  C    0.070027
    18  C    0.085994
    22  O   -0.053946
    23  O    0.060162
 Electronic spatial extent (au):  <R**2>=           2784.0164
 Charge=             -0.0000 electrons
 Dipole moment (field-independent basis, Debye):
    X=             -0.2101    Y=             -1.0751    Z=              1.4182  Tot=              1.7920
 Quadrupole moment (field-independent basis, Debye-Ang):
   XX=            -68.3507   YY=            -63.9237   ZZ=            -80.1996
   XY=             -4.5995   XZ=              7.2630   YZ=             -2.3359
 Traceless Quadrupole moment (field-independent basis, Debye-Ang):
   XX=              2.4740   YY=              6.9010   ZZ=             -9.3749
   XY=             -4.5995   XZ=              7.2630   YZ=             -2.3359
 Octapole moment (field-independent basis, Debye-Ang**2):
  XXX=             11.6026  YYY=            -15.7342  ZZZ=             -7.0051  XYY=             25.5612
  XXY=            -28.2357  XXZ=              3.3522  XZZ=             12.5030  YZZ=             -4.0779
  YYZ=             -6.4513  XYZ=              9.4523
 Hexadecapole moment (field-independent basis, Debye-Ang**3):
 XXXX=          -2518.1426 YYYY=           -592.9957 ZZZZ=           -294.7079 XXXY=            -98.6175
 XXXZ=             56.3673 YYYX=            -56.9822 YYYZ=             -1.5486 ZZZX=            -20.2749
 ZZZY=              4.2354 XXYY=           -440.8559 XXZZ=           -512.1166 YYZZ=           -156.4037
 XXYZ=             16.2204 YYXZ=            -17.8534 ZZXY=            -17.3510
 N-N= 7.361398813256D+02 E-N=-2.812935149842D+03  KE= 5.717021755894D+02
  Exact polarizability:   0.000   0.000   0.000   0.000   0.000   0.000
 Approx polarizability: 243.585  21.305 174.191  27.196 -19.334  89.453
                          Isotropic Fermi Contact Couplings
        Atom                 a.u.       MegaHertz       Gauss      10(-4) cm-1
     1  C(13)             -0.02977     -33.46159     -11.93993     -11.16159
     2  C(13)              0.03115      35.01344      12.49367      11.67923
     3  C(13)              0.01215      13.66238       4.87508       4.55728
     4  C(13)             -0.01057     -11.88202      -4.23980      -3.96341
     5  H(1)              -0.00097      -4.34177      -1.54925      -1.44826
     6  C(13)             -0.01303     -14.64834      -5.22689      -4.88616
     7  H(1)              -0.00283     -12.62853      -4.50617      -4.21243
     8  C(13)              0.01294      14.54345       5.18947       4.85117
     9  H(1)               0.00063       2.83705       1.01233       0.94634
    10  C(13)              0.00831       9.34399       3.33417       3.11682
    11  C(13)             -0.00649      -7.30143      -2.60533      -2.43549
    12  H(1)              -0.00073      -3.25020      -1.15975      -1.08415
    13  C(13)              0.01006      11.31379       4.03704       3.77387
    14  H(1)               0.00033       1.47728       0.52713       0.49277
    15  C(13)             -0.00796      -8.95228      -3.19440      -2.98616
    16  H(1)               0.00041       1.83115       0.65340       0.61080
    17  H(1)              -0.00088      -3.91888      -1.39835      -1.30720
    18  C(13)              0.20344     228.71034      81.60954      76.28956
    19  H(1)              -0.02391    -106.89647     -38.14332     -35.65682
    20  H(1)              -0.00770     -34.40843     -12.27778     -11.47742
    21  H(1)              -0.00824     -36.84647     -13.14774     -12.29066
    22  O(17)              0.16770    -101.65851     -36.27428     -33.90963
    23  O(17)              0.00868      -5.26449      -1.87850      -1.75605
    24  H(1)              -0.00038      -1.68804      -0.60234      -0.56307
 --------------------------------------------------------
       Center         ----  Spin Dipole Couplings  ----
                      3XX-RR        3YY-RR        3ZZ-RR
 --------------------------------------------------------
     1   Atom        0.051109      0.020205     -0.071314
     2   Atom       -0.068677     -0.064112      0.132789
     3   Atom       -0.020574     -0.020305      0.040879
     4   Atom        0.018890      0.014584     -0.033474
     5   Atom       -0.001494      0.005368     -0.003874
     6   Atom        0.017689      0.008125     -0.025815
     7   Atom       -0.005511      0.009022     -0.003511
     8   Atom       -0.023462     -0.025297      0.048758
     9   Atom        0.002590     -0.001070     -0.001520
    10   Atom       -0.014659     -0.016919      0.031578
    11   Atom        0.010366      0.007365     -0.017731
    12   Atom       -0.000877      0.002156     -0.001280
    13   Atom       -0.019042     -0.021475      0.040517
    14   Atom        0.000979     -0.000288     -0.000691
    15   Atom        0.012855      0.008835     -0.021691
    16   Atom        0.002002     -0.001027     -0.000975
    17   Atom        0.004284     -0.003946     -0.000337
    18   Atom       -0.139507     -0.278104      0.417611
    19   Atom       -0.040057     -0.150643      0.190700
    20   Atom       -0.032538      0.018582      0.013956
    21   Atom       -0.014876      0.021235     -0.006359
    22   Atom        0.075575     -0.789617      0.714043
    23   Atom       -0.078982     -0.107743      0.186726
    24   Atom       -0.009642      0.014293     -0.004652
 --------------------------------------------------------
                        XY            XZ            YZ
 --------------------------------------------------------
     1   Atom        0.005418      0.026090     -0.028946
     2   Atom       -0.015350     -0.050895      0.072760
     3   Atom       -0.008642     -0.016840      0.019415
     4   Atom        0.002992      0.014862     -0.016483
     5   Atom       -0.001110     -0.000572     -0.001435
     6   Atom        0.002991      0.011525     -0.011529
     7   Atom       -0.002575     -0.001034     -0.005332
     8   Atom       -0.008041     -0.020874      0.024464
     9   Atom        0.000438      0.000630      0.000233
    10   Atom       -0.003741     -0.015227      0.015154
    11   Atom        0.001792      0.008159     -0.008753
    12   Atom        0.000158     -0.000123     -0.001340
    13   Atom       -0.006292     -0.017667      0.021080
    14   Atom       -0.000744      0.000658     -0.000437
    15   Atom        0.003182      0.009897     -0.010299
    16   Atom        0.000445      0.000546      0.000159
    17   Atom       -0.001307      0.001627      0.000689
    18   Atom       -0.092886     -0.382021      0.187412
    19   Atom       -0.057574     -0.226694      0.097674
    20   Atom       -0.018485     -0.003760     -0.032692
    21   Atom        0.034243     -0.002394      0.028693
    22   Atom        0.008681     -1.141288      0.007088
    23   Atom       -0.065034     -0.122422      0.057576
    24   Atom       -0.006252     -0.000601      0.004396
 --------------------------------------------------------


 ---------------------------------------------------------------------------------
              Anisotropic Spin Dipole Couplings in Principal Axis System
 ---------------------------------------------------------------------------------

       Atom             a.u.   MegaHertz   Gauss  10(-4) cm-1        Axes

              Baa    -0.0849   -11.392    -4.065    -3.800 -0.1918  0.2698  0.9436
     1 C(13)  Bbb     0.0284     3.817     1.362     1.273  0.0703  0.9628 -0.2610
              Bcc     0.0564     7.574     2.703     2.527  0.9789 -0.0163  0.2036
 
              Baa    -0.0883   -11.850    -4.228    -3.953 -0.1636  0.9253 -0.3422
     2 C(13)  Bbb    -0.0804   -10.783    -3.848    -3.597  0.9620  0.2265  0.1524
              Bcc     0.1687    22.632     8.076     7.549 -0.2185  0.3042  0.9272
 
              Baa    -0.0292    -3.914    -1.396    -1.305  0.6577  0.7516 -0.0502
     3 C(13)  Bbb    -0.0222    -2.975    -1.061    -0.992  0.7103 -0.5967  0.3735
              Bcc     0.0513     6.888     2.458     2.298 -0.2507  0.2813  0.9263
 
              Baa    -0.0423    -5.677    -2.026    -1.894 -0.2394  0.2818  0.9291
     4 C(13)  Bbb     0.0191     2.558     0.913     0.853  0.3766  0.9090 -0.1786
              Bcc     0.0232     3.119     1.113     1.040  0.8949 -0.3072  0.3238
 
              Baa    -0.0043    -2.289    -0.817    -0.764  0.2621  0.1713  0.9497
     5 H(1)   Bbb    -0.0014    -0.767    -0.274    -0.256  0.9549  0.0964 -0.2809
              Bcc     0.0057     3.056     1.091     1.019 -0.1397  0.9805 -0.1382
 
              Baa    -0.0322    -4.321    -1.542    -1.441 -0.2320  0.2833  0.9306
     6 C(13)  Bbb     0.0116     1.562     0.557     0.521  0.0556  0.9590 -0.2781
              Bcc     0.0206     2.758     0.984     0.920  0.9711  0.0128  0.2382
 
              Baa    -0.0075    -3.986    -1.422    -1.330  0.7297  0.3108  0.6090
     7 H(1)   Bbb    -0.0038    -2.011    -0.718    -0.671 -0.6725  0.1654  0.7214
              Bcc     0.0112     5.997     2.140     2.000 -0.1235  0.9360 -0.3297
 
              Baa    -0.0333    -4.471    -1.595    -1.491  0.3655  0.9134 -0.1793
     8 C(13)  Bbb    -0.0286    -3.841    -1.370    -1.281  0.8958 -0.2929  0.3343
              Bcc     0.0619     8.311     2.966     2.772 -0.2528  0.2828  0.9253
 
              Baa    -0.0017    -0.888    -0.317    -0.296 -0.1108 -0.2910  0.9503
     9 H(1)   Bbb    -0.0011    -0.575    -0.205    -0.192 -0.1602  0.9489  0.2719
              Bcc     0.0027     1.463     0.522     0.488  0.9809  0.1221  0.1517
 
              Baa    -0.0214    -2.873    -1.025    -0.958 -0.2360  0.9142 -0.3293
    10 C(13)  Bbb    -0.0190    -2.546    -0.908    -0.849  0.9324  0.3086  0.1883
              Bcc     0.0404     5.419     1.934     1.808 -0.2738  0.2626  0.9253
 
              Baa    -0.0226    -3.031    -1.081    -1.011 -0.2450  0.2854  0.9266
    11 C(13)  Bbb     0.0099     1.331     0.475     0.444  0.2602  0.9400 -0.2208
              Bcc     0.0127     1.700     0.607     0.567  0.9340 -0.1870  0.3045
 
              Baa    -0.0017    -0.931    -0.332    -0.311  0.0752  0.3212  0.9440
    12 H(1)   Bbb    -0.0009    -0.471    -0.168    -0.157  0.9957 -0.0754 -0.0536
              Bcc     0.0026     1.402     0.500     0.468  0.0540  0.9440 -0.3255
 
              Baa    -0.0281    -3.773    -1.346    -1.258  0.1822  0.9521 -0.2455
    13 C(13)  Bbb    -0.0238    -3.199    -1.141    -1.067  0.9496 -0.1055  0.2953
              Bcc     0.0520     6.971     2.488     2.325 -0.2552  0.2869  0.9233
 
              Baa    -0.0010    -0.530    -0.189    -0.177 -0.1499  0.4012  0.9036
    14 H(1)   Bbb    -0.0006    -0.318    -0.114    -0.106  0.5029  0.8178 -0.2797
              Bcc     0.0016     0.849     0.303     0.283  0.8512 -0.4125  0.3244
 
              Baa    -0.0275    -3.692    -1.318    -1.232 -0.2493  0.2841  0.9258
    15 C(13)  Bbb     0.0120     1.607     0.574     0.536 -0.0391  0.9523 -0.3028
              Bcc     0.0155     2.085     0.744     0.695  0.9676  0.1117  0.2263
 
              Baa    -0.0012    -0.620    -0.221    -0.207  0.0092  0.7486 -0.6630
    16 H(1)   Bbb    -0.0010    -0.536    -0.191    -0.179 -0.2279  0.6471  0.7275
              Bcc     0.0022     1.156     0.413     0.386  0.9737  0.1444  0.1765
 
              Baa    -0.0044    -2.336    -0.833    -0.779  0.1885  0.9527 -0.2385
    17 H(1)   Bbb    -0.0005    -0.291    -0.104    -0.097 -0.2377  0.2799  0.9302
              Bcc     0.0049     2.627     0.937     0.876  0.9529 -0.1187  0.2792
 
              Baa    -0.3342   -44.848   -16.003   -14.960  0.8489 -0.2120  0.4842
    18 C(13)  Bbb    -0.3243   -43.524   -15.530   -14.518  0.2900  0.9527 -0.0913
              Bcc     0.6586    88.371    31.533    29.478 -0.4419  0.2179  0.8702
 
              Baa    -0.1800   -96.032   -34.266   -32.033  0.7160 -0.4288  0.5509
    19 H(1)   Bbb    -0.1751   -93.432   -33.339   -31.166  0.4774  0.8765  0.0618
              Bcc     0.3551   189.464    67.605    63.198 -0.5093  0.2187  0.8323
 
              Baa    -0.0428   -22.840    -8.150    -7.619  0.8591  0.4168  0.2970
    20 H(1)   Bbb    -0.0077    -4.133    -1.475    -1.379 -0.4933  0.5198  0.6975
              Bcc     0.0506    26.973     9.624     8.997 -0.1364  0.7457 -0.6522
 
              Baa    -0.0445   -23.731    -8.468    -7.916  0.6857 -0.5602  0.4648
    21 H(1)   Bbb    -0.0073    -3.910    -1.395    -1.304 -0.6018 -0.0771  0.7949
              Bcc     0.0518    27.641     9.863     9.220  0.4095  0.8247  0.3900
 
              Baa    -0.8012    57.971    20.686    19.337 -0.5716  0.6965 -0.4338
    22 O(17)  Bbb    -0.7787    56.350    20.107    18.796  0.5549  0.7176  0.4209
              Bcc     1.5799  -114.321   -40.792   -38.133 -0.6044  0.0002  0.7967
 
              Baa    -0.1644    11.899     4.246     3.969  0.7175  0.6827  0.1382
    23 O(17)  Bbb    -0.0869     6.289     2.244     2.098 -0.5863  0.6991 -0.4094
              Bcc     0.2514   -18.188    -6.490    -6.067 -0.3761  0.2127  0.9018
 
              Baa    -0.0112    -5.983    -2.135    -1.996  0.9650  0.2502 -0.0793
    24 H(1)   Bbb    -0.0055    -2.948    -1.052    -0.983  0.1260 -0.1768  0.9762
              Bcc     0.0167     8.931     3.187     2.979 -0.2302  0.9519  0.2021
 

 ---------------------------------------------------------------------------------

 Calling FoFJK, ICntrl=    100147 FMM=F ISym2X=0 I1Cent= 0 IOpClX= 1 NMat=1 NMatS=1 NMatT=0.
 ***** Axes restored to original set *****
 -------------------------------------------------------------------
 Center     Atomic                   Forces (Hartrees/Bohr)
 Number     Number              X              Y              Z
 -------------------------------------------------------------------
      1        6           0.000733418    0.001336690    0.001088725
      2        6           0.000085769   -0.001614798    0.000064252
      3        6           0.002362793    0.000296284    0.000355825
      4        6          -0.001978604    0.000964837   -0.001022912
      5        1           0.001754252    0.001874258   -0.000055398
      6        6           0.000042297   -0.000594523    0.000094857
      7        1           0.000761546   -0.002300391    0.000848867
      8        6          -0.000060161    0.000636513   -0.000060367
      9        1          -0.000845602    0.002240297   -0.000919011
     10        6           0.001566054   -0.001005512    0.000895435
     11        6          -0.002040956   -0.000631091   -0.000278252
     12        1           0.000892156   -0.002270040    0.000949635
     13        6          -0.001900635   -0.000848901   -0.000165360
     14        1          -0.001762018   -0.001987988    0.000100548
     15        6           0.000273184    0.001750187   -0.000567073
     16        1          -0.000692094    0.002344765   -0.000878689
     17        1          -0.002460625    0.000254886   -0.000730018
     18        6          -0.071225036    0.027529203    0.121526982
     19        1          -0.003532723   -0.000673294   -0.004648444
     20        1           0.000150994   -0.001505693    0.002263709
     21        1           0.000909621    0.001913113    0.001469715
     22        8           0.079024397   -0.026972835   -0.120010945
     23        8          -0.005456524    0.002119100   -0.002061503
     24        1           0.003398497   -0.002855064    0.001739422
 -------------------------------------------------------------------
 Cartesian Forces:  Max     0.121526982 RMS     0.024200245
 FormGI is forming the generalized inverse of G from B-inverse, IUseBI=4.

 GradGradGradGradGradGradGradGradGradGradGradGradGradGradGradGradGradGrad
 Berny optimization.
 Internal  Forces:  Max     0.147648460 RMS     0.019068848
 Search for a saddle point.
 Step number   1 out of a maximum of  144
 All quantities printed in internal units (Hartrees-Bohrs-Radians)
 Swapping is turned off.
 Second derivative matrix not updated -- analytic derivatives used.
 ITU=  0
     Eigenvalues ---    0.00359   0.00905   0.01397   0.01453   0.01594
     Eigenvalues ---    0.01700   0.01803   0.02014   0.02084   0.02214
     Eigenvalues ---    0.02275   0.02374   0.02419   0.02436   0.02531
     Eigenvalues ---    0.02653   0.02810   0.02834   0.03368   0.03695
     Eigenvalues ---    0.06508   0.06917   0.07862   0.10454   0.11044
     Eigenvalues ---    0.11417   0.11544   0.11757   0.12222   0.12380
     Eigenvalues ---    0.12643   0.12783   0.17564   0.17962   0.18401
     Eigenvalues ---    0.18903   0.19521   0.19696   0.20069   0.20458
     Eigenvalues ---    0.21756   0.23537   0.26966   0.30054   0.34914
     Eigenvalues ---    0.35883   0.36043   0.36368   0.36621   0.36808
     Eigenvalues ---    0.36921   0.36962   0.37141   0.37604   0.38912
     Eigenvalues ---    0.41446   0.41722   0.43152   0.43263   0.45327
     Eigenvalues ---    0.50565   0.52435   0.54388   0.55169   0.55345
     Eigenvalues ---    0.64550
 Eigenvectors required to have negative eigenvalues:
                          D12       D9        D13       D10       D14
   1                   -0.42336  -0.41980  -0.39831  -0.39474  -0.38556
                          D11       D54       D52       D51       D53
   1                   -0.38200  -0.10773   0.05406   0.05288   0.05127
 RFO step:  Lambda0=3.766648129D-03 Lambda=-6.35561749D-02.
 Linear search not attempted -- option 19 set.
 Maximum step size (   0.300) exceeded in Quadratic search.
    -- Step size scaled by   0.948
 Iteration  1 RMS(Cart)=  0.08452453 RMS(Int)=  0.00400033
 Iteration  2 RMS(Cart)=  0.00633632 RMS(Int)=  0.00003303
 Iteration  3 RMS(Cart)=  0.00003404 RMS(Int)=  0.00002510
 Iteration  4 RMS(Cart)=  0.00000001 RMS(Int)=  0.00002510
 Variable       Old X    -DE/DX   Delta X   Delta X   Delta X     New X
                                 (Linear)    (Quad)   (Total)
    R1        2.60732   0.00457   0.00000   0.00900   0.00900   2.61631
    R2        2.69521   0.00323   0.00000   0.00719   0.00718   2.70239
    R3        2.74232   0.00330   0.00000   0.00077   0.00077   2.74309
    R4        2.66790   0.00391   0.00000   0.00668   0.00668   2.67458
    R5        2.04823   0.00257   0.00000   0.00525   0.00525   2.05348
    R6        2.56998   0.00551   0.00000   0.00629   0.00628   2.57626
    R7        2.04527   0.00256   0.00000   0.00527   0.00527   2.05054
    R8        2.68376   0.00358   0.00000   0.00750   0.00750   2.69126
    R9        2.04614   0.00256   0.00000   0.00494   0.00494   2.05108
   R10        2.68121   0.00416   0.00000   0.00683   0.00683   2.68804
   R11        2.67797   0.00367   0.00000   0.00548   0.00548   2.68346
   R12        2.67029   0.00386   0.00000   0.00523   0.00523   2.67552
   R13        2.58194   0.00517   0.00000   0.00800   0.00800   2.58995
   R14        2.04607   0.00260   0.00000   0.00517   0.00517   2.05124
   R15        2.66892   0.00358   0.00000   0.00528   0.00528   2.67420
   R16        2.04288   0.00265   0.00000   0.00557   0.00557   2.04845
   R17        2.58540   0.00496   0.00000   0.00808   0.00808   2.59348
   R18        2.04267   0.00259   0.00000   0.00507   0.00507   2.04773
   R19        2.04612   0.00261   0.00000   0.00502   0.00502   2.05113
   R20        2.09519   0.14765   0.00000   0.24470   0.24470   2.33989
   R21        2.05203   0.00253   0.00000   0.00635   0.00635   2.05837
   R22        2.05307   0.00243   0.00000   0.00533   0.00533   2.05840
   R23        1.85415   0.14547   0.00000   0.16096   0.16096   2.01510
   R24        2.63696   0.00166   0.00000   0.00117   0.00117   2.63813
   R25        1.82209   0.00462   0.00000   0.00677   0.00677   1.82887
    A1        2.06939  -0.00008   0.00000   0.00058   0.00058   2.06997
    A2        2.11852  -0.00027   0.00000   0.00175   0.00175   2.12026
    A3        2.09365   0.00034   0.00000  -0.00242  -0.00242   2.09123
    A4        2.12220   0.00017   0.00000  -0.00065  -0.00065   2.12155
    A5        2.08780  -0.00006   0.00000   0.00272   0.00272   2.09051
    A6        2.07317  -0.00011   0.00000  -0.00210  -0.00210   2.07107
    A7        2.11295  -0.00013   0.00000  -0.00042  -0.00042   2.11253
    A8        2.07207  -0.00008   0.00000  -0.00198  -0.00198   2.07009
    A9        2.09816   0.00021   0.00000   0.00239   0.00239   2.10055
   A10        2.11073   0.00003   0.00000  -0.00007  -0.00008   2.11066
   A11        2.10249   0.00004   0.00000   0.00021   0.00020   2.10269
   A12        2.06996  -0.00008   0.00000  -0.00015  -0.00015   2.06981
   A13        2.07917   0.00004   0.00000  -0.00019  -0.00019   2.07898
   A14        2.12906  -0.00008   0.00000  -0.00048  -0.00048   2.12858
   A15        2.07496   0.00004   0.00000   0.00066   0.00066   2.07562
   A16        2.07180  -0.00004   0.00000   0.00081   0.00081   2.07261
   A17        2.13256  -0.00005   0.00000  -0.00078  -0.00078   2.13178
   A18        2.07881   0.00009   0.00000  -0.00003  -0.00003   2.07878
   A19        2.10718   0.00007   0.00000  -0.00041  -0.00041   2.10678
   A20        2.07091  -0.00013   0.00000   0.00035   0.00035   2.07125
   A21        2.10509   0.00006   0.00000   0.00006   0.00006   2.10515
   A22        2.09961  -0.00013   0.00000  -0.00024  -0.00024   2.09938
   A23        2.09548   0.00014   0.00000   0.00059   0.00059   2.09607
   A24        2.08809  -0.00002   0.00000  -0.00035  -0.00035   2.08774
[...]
 0.00013783,0.00072665,0.00199721,0.00143591,0.00000320,-0.00002224,-0.
 00007593,-0.00404853,-0.00196475,-0.00357878,-0.00044596,0.00000076,-0
 .00020355,-0.00739805,0.02630595,-0.00700597,-0.00023208,-0.00124085,-
 0.00009959,-0.00081593,-0.00073653,-0.00009965,-0.00019325,-0.00330556
 ,-0.00296270,-0.00005989,0.00016507,0.00045644,0.01114423,-0.01511074,
 0.00437076,0.00043470,-0.00082647,0.00019310,-0.10785315,0.10274637,-0
 .03959760,0.10847372,-0.00010577,0.00024121,-0.00007421,-0.00039794,-0
 .00003082,-0.00012669,0.00041869,-0.00004740,0.00015203,-0.00124411,0.
 00097966,-0.00094962,0.00004136,0.00000940,0.00003310,-0.00063149,0.00
 136746,0.00021215,0.00001263,-0.00000341,0.00001397,-0.00122202,0.0021
 8895,-0.00034520,0.00058102,0.00005840,0.00021010,-0.00067839,0.000305
 97,-0.00033402,-0.00422955,-0.00268920,-0.00055364,0.00016561,-0.00005
 920,-0.00006827,0.01404645,-0.01754694,0.00794696,0.00072217,-0.001024
 20,0.00040121,0.10227962,-0.26645813,0.06705590,-0.10991354,0.28187913
 ,-0.00000961,0.00003917,-0.00004451,0.00000068,0.00066792,0.00011563,0
 .00006374,-0.00015233,-0.00000898,0.00176772,0.00027358,-0.00283571,-0
 .00007785,0.00001340,0.00016755,-0.00362615,-0.00040221,0.00413949,-0.
 00019455,0.00001039,-0.00000226,-0.00412034,0.01017787,0.00058169,-0.0
 0024362,-0.00042063,0.00018634,-0.00008708,-0.00029030,-0.00033566,-0.
 00280510,-0.00014532,0.00697474,0.00046187,-0.00006355,-0.00108078,0.0
 0132281,-0.00362725,0.00480437,0.00002269,-0.00019163,0.00020223,-0.03
 972937,0.06760743,-0.06051468,0.04534238,-0.07303437,0.05173943,0.0000
 3400,-0.00011093,-0.00004126,-0.00002535,0.00008533,0.00030258,-0.0002
 1450,-0.00033947,0.00017342,-0.00051491,0.00050134,-0.00035364,-0.0000
 8257,0.00000489,-0.00002772,0.00041906,-0.00000341,0.00039199,0.000009
 13,0.00001785,-0.00001471,0.00168419,-0.00319860,-0.00235872,0.0000223
 5,-0.00004522,-0.00003347,0.00149383,0.00238846,-0.00178029,-0.0074740
 2,-0.00282383,-0.00386476,-0.00049406,-0.00014365,-0.00024283,-0.30439
 025,0.00332598,-0.10608355,0.00010813,0.00032201,0.00119503,-0.0101591
 0,0.00291365,-0.00588050,-0.00000894,0.00005148,0.00188776,0.31953537,
 0.00027608,-0.00025603,0.00015055,0.00027264,0.00021814,-0.00001036,-0
 .00043661,-0.00026374,-0.00019991,-0.00079552,0.00091838,-0.00038649,-
 0.00014645,0.00000815,-0.00005330,-0.00051752,-0.00121662,-0.00013477,
 -0.00008120,0.00002204,-0.00002916,-0.00244582,-0.00494469,0.00047747,
 0.00001688,-0.00001955,0.00001980,0.00170223,-0.00485268,0.00173411,0.
 02615835,0.00509997,0.01016294,0.00139685,0.00003453,0.00054872,0.0037
 7800,-0.06012276,0.00327506,-0.00051266,0.00084649,-0.00059135,-0.0261
 6524,0.00549249,-0.01048569,0.00062138,0.00079717,-0.00040426,-0.00295
 776,0.05819274,-0.00007341,0.00001417,0.00014650,0.00026287,-0.0000829
 9,-0.00071630,0.00018829,-0.00016748,-0.00047648,-0.00022555,0.0001140
 4,0.00015718,-0.00001456,0.00000080,-0.00000987,0.00043893,0.00005007,
 -0.00038796,-0.00000536,0.00001126,0.00003805,-0.00243371,0.00016118,0
 .00761107,-0.00004009,-0.00000152,0.00010237,-0.00173592,0.00195878,0.
 00453904,-0.00663233,-0.00136690,0.00050253,-0.00039552,-0.00003810,0.
 00002493,-0.10640368,0.00311604,-0.07931883,0.00126439,-0.00027688,-0.
 00250961,-0.00284143,0.00110295,0.00256675,0.00190493,-0.00057684,-0.0
 0410119,0.11671892,-0.00401724,0.07180713,-0.23617158,0.01958903,-0.07
 401110,-0.05768032,-0.04989718,-0.01846412,-0.04610856,0.02999286,-0.0
 2238165,0.02673714,0.01295130,0.00777698,0.00115906,-0.00204607,0.0013
 9439,0.01221760,-0.00414659,0.00327953,0.00056616,0.00220840,0.0013583
 4,-0.02048099,-0.01034047,-0.00667646,0.00023758,0.00007023,-0.0000022
 7,0.00093453,-0.00081063,0.00030101,-0.00414845,0.00254656,-0.00172407
 ,0.00004620,0.00009362,-0.00000951,-0.00359859,-0.01043973,-0.00036119
 ,-0.00007238,0.00007487,-0.00002759,0.01440252,0.00696854,0.00502633,0
 .00010436,0.00010460,0.00003813,0.00004949,-0.00015288,0.00002904,0.54
 890739,-0.00319363,-0.10716574,0.00685179,-0.03421754,0.00342769,-0.01
 263690,0.03369034,0.00240598,0.01309315,0.00008984,-0.00713552,0.00107
 322,0.00110197,0.00077114,0.00007789,-0.00093861,-0.00538009,0.0007780
 5,-0.00099137,0.00078522,-0.00091117,-0.00002752,-0.00011063,-0.000034
 21,0.00146351,0.00007082,0.00056383,-0.00153647,0.00047036,-0.00057658
 ,0.00014122,-0.00047070,0.00003435,0.00002575,-0.00004900,0.00000792,-
 0.00013565,0.00026254,-0.00006120,-0.00015899,-0.00000316,-0.00006215,
 -0.00006441,0.00019615,-0.00008308,-0.00014328,0.00002919,-0.00006226,
 0.00001683,0.00003386,0.00000420,0.02322822,0.65730599,-0.07583390,0.0
 1490584,-0.07180287,-0.01963126,-0.01774265,0.00081090,-0.02248546,0.0
 1087082,-0.00454000,0.00840617,0.00583532,0.00520899,0.00101703,-0.001
 02554,-0.00126266,0.00288719,-0.00047773,0.00553463,0.00133406,0.00030
 094,-0.00212435,-0.00699443,-0.00367411,-0.00292015,-0.00016709,0.0000
 3566,0.00010599,0.00033819,-0.00039074,0.00053473,-0.00132123,0.000839
 75,-0.00100161,-0.00001006,0.00006118,0.00001354,-0.00122963,-0.003727
 44,0.00000605,0.00000806,0.00003698,-0.00002303,0.00523588,0.00251744,
 0.00152973,0.00006447,0.00002228,0.00000865,0.00001265,-0.00005310,0.0
 0001704,0.18193085,-0.05838794,0.14700824,-0.00083522,0.00100174,0.000
 17011,0.00007251,-0.00016352,-0.00011262,0.00022364,0.00020480,-0.0002
 0207,-0.00014244,-0.00023428,0.00009555,0.00001704,-0.00012671,0.00000
 318,-0.00136712,-0.00015847,-0.00056896,-0.00033990,-0.00025939,0.0007
 4645,0.00006839,-0.00015555,0.00003466,0.00003764,-0.00001470,0.000000
 60,0.00020138,-0.00008380,0.00007933,-0.00000105,0.00017689,0.00000211
 ,-0.00001116,0.00003591,-0.00002980,0.00004388,0.00008240,0.00001227,0
 .00004105,0.00001614,0.00000741,-0.00021236,-0.00003989,-0.00008795,0.
 00001985,-0.00002412,0.00000756,0.00003056,0.00000974,0.00000743,0.000
 99999,0.00059323,0.00275732,0.14207962,0.00185675,-0.00160209,-0.00072
 902,0.00105312,0.00191226,-0.00043029,0.00005391,-0.00038145,0.0002101
 4,0.00008467,-0.00012750,0.00007305,0.00001268,-0.00007399,-0.00002910
 ,-0.00005762,-0.00056066,-0.00004157,-0.00008869,-0.00051913,0.0007672
 3,0.00004535,0.00005143,0.00005444,-0.00001879,-0.00000345,-0.00003812
 ,-0.00005174,0.00029365,-0.00017326,-0.00006679,0.00005184,-0.00008815
 ,-0.00005851,-0.00013461,0.00013006,-0.00013917,-0.00003277,-0.0000466
 0,-0.00003152,-0.00002020,0.00000068,0.00003556,-0.00020779,0.00007012
 ,0.00000796,0.00000930,0.00000540,-0.00000013,-0.00001831,0.00000703,-
 0.00165897,-0.00005754,-0.00030231,-0.17596245,0.44128635,0.00126501,-
 0.00105601,-0.00100682,0.00129764,0.00000331,-0.00026336,0.00023087,-0
 .00065436,0.00029610,-0.00061845,0.00003564,-0.00036503,-0.00000254,0.
 00016450,0.00005400,0.00053741,0.00034093,0.00030356,0.00075797,0.0008
 5366,-0.00075507,-0.00002162,0.00048601,0.00002508,-0.00010224,0.00004
 424,-0.00003051,-0.00034796,0.00002522,-0.00022448,0.00012075,-0.00008
 414,-0.00000668,0.00003294,-0.00003574,0.00008671,-0.00019868,0.000209
 07,-0.00011248,-0.00006471,-0.00004116,0.00001170,-0.00017458,-0.00030
 214,-0.00009499,-0.00005318,0.00005313,0.00000052,-0.00003929,-0.00000
 925,0.00000402,-0.00018941,-0.00119575,-0.00076585,-0.00931067,0.07420
 073,0.03111430,-0.00715806,0.02578213,-0.00688683,0.00093585,0.0019551
 9,0.00142529,-0.00379906,-0.00257926,-0.00327157,-0.00002887,0.0017020
 1,-0.00026872,0.00000084,0.00021023,0.00003859,0.00005939,-0.00039228,
 0.00005646,-0.00032291,-0.00118771,-0.00006191,0.00021397,0.00006721,0
 .00003170,-0.00050941,-0.00000221,0.00002570,0.00002285,0.00008355,-0.
 00000636,-0.00006270,0.00000724,-0.00002199,-0.00000924,-0.00003416,-0
 .00000881,-0.00000409,-0.00006337,-0.00000343,0.00000269,-0.00000339,0
 .00000042,0.00003374,-0.00008125,0.00003374,0.00002763,0.00000055,0.00
 002208,-0.00000249,-0.00000973,-0.00000364,-0.11072907,0.10650466,-0.0
 4723901,0.00016595,0.00040938,-0.00043033,0.11141388,-0.00003051,0.003
 51449,-0.00027898,-0.00148812,0.00022805,-0.00094142,-0.00100832,0.000
 99576,0.00010551,0.00025170,0.00032786,0.00008362,-0.00019581,0.000351
 44,-0.00013156,0.00048161,0.00007956,0.00014005,0.00026424,-0.00004668
 ,0.00025615,-0.00042354,-0.00010256,-0.00012968,0.00002738,0.00001642,
 -0.00005228,0.00003574,-0.00006423,0.00001764,-0.00004367,0.00009526,-
 0.00002408,-0.00000499,0.00001198,-0.00000364,-0.00009937,-0.00018894,
 -0.00001715,0.00000655,0.00000188,0.00000196,0.00029123,0.00016767,0.0
 0009712,-0.00000543,-0.00000953,-0.00000541,0.00000847,0.00000119,0.00
 000357,0.10862666,-0.27205461,0.07317608,0.00038422,-0.00012650,0.0001
 0825,-0.11877581,0.28036456,-0.00161843,0.00920478,0.00048610,0.001312
 84,-0.00024869,-0.00236203,-0.00367952,-0.00016262,0.00413893,0.000211
 19,0.00075543,0.00025136,0.00008504,0.00001308,-0.00014703,0.00003477,
 -0.00015496,0.00001373,-0.00035058,-0.00040694,0.00022103,-0.00019848,
 -0.00009792,0.00008990,0.00003901,-0.00006796,-0.00055817,0.00003416,0
 .00006537,-0.00000281,-0.00008234,0.00004557,-0.00004070,-0.00000874,-
 0.00002120,0.00002859,-0.00006430,-0.00013686,0.00001220,-0.00000584,-
 0.00000365,0.00000410,0.00017384,0.00000837,0.00003252,0.00002215,0.00
 000195,-0.00002116,-0.00000474,-0.00000678,0.00000800,-0.04886334,0.07
 328238,-0.04749631,-0.00071821,0.00006048,-0.00158862,0.05199754,-0.07
 878336,0.04265994,-0.00875067,-0.02552708,-0.00219446,-0.00395836,0.00
 209826,-0.00350067,0.00097386,-0.00181417,0.00182912,0.00005742,0.0003
 3616,0.00001201,-0.00038542,0.00100186,-0.00039945,-0.00003789,-0.0015
 6162,0.00005685,0.00001063,-0.00014928,0.00006561,0.00018884,-0.000067
 61,0.00005487,-0.00001048,0.00000060,-0.00005691,-0.00045316,0.0002105
 9,-0.00009025,-0.00001429,-0.00015567,-0.00000147,0.00001815,-0.000004
 84,0.00000295,-0.00000965,0.00001767,0.00000559,-0.00004933,-0.0000021
 9,-0.00002299,0.00001522,0.00008402,-0.00000227,-0.00002532,0.00000833
 ,-0.00002073,-0.00000447,0.00000861,-0.00000063,-0.12660728,-0.1250291
 7,-0.02726754,-0.00009657,0.00016401,-0.00013699,0.00989893,0.01192201
 ,0.00134416,0.12923684,0.00118507,0.00312023,0.00038854,0.00063785,0.0
 0114842,0.00058612,0.00168922,0.00064904,0.00020208,-0.00061713,-0.000
 05116,-0.00022270,-0.00042135,-0.00000110,-0.00010327,0.00011515,0.000
 18143,0.00003357,0.00023591,0.00033189,0.00002545,0.00035074,0.0003311
 9,0.00011571,-0.00005717,0.00000293,-0.00000679,-0.00004173,-0.0000002
 3,-0.00003055,0.00008654,-0.00008787,0.00004218,0.00001124,0.00000944,
 0.00000095,0.00008431,0.00020031,0.00001064,-0.00000344,-0.00000096,-0
 .00000003,-0.00027260,-0.00009912,-0.00010187,-0.00000921,0.00000201,-
 0.00000085,-0.00000851,0.00000163,-0.00000336,-0.12780029,-0.27248960,
 -0.02144204,-0.00014456,-0.00032912,0.00041520,-0.01351949,-0.01316298
 ,-0.00357644,0.13841301,0.28022723,-0.00369350,-0.00903253,0.00241254,
 -0.00344627,0.00105292,0.00318482,0.00132590,-0.00101673,-0.00269729,0
 .00021350,0.00016080,0.00003256,-0.00025824,0.00039744,0.00009320,-0.0
 0008443,-0.00057372,0.00043104,0.00006920,-0.00014027,-0.00018819,-0.0
 0008983,-0.00008415,0.00003955,-0.00004385,0.00001525,0.00011434,-0.00
 005216,0.00004286,-0.00031223,-0.00002799,-0.00003279,0.00000038,-0.00
 000231,-0.00000309,0.00001953,-0.00002971,-0.00005935,-0.00002859,-0.0
 0002297,0.00000034,0.00000483,0.00010437,0.00006443,0.00002452,-0.0000
 1809,0.00000681,0.00001851,0.00000180,0.00000140,-0.00000383,-0.028053
 26,-0.02142679,-0.02732211,-0.00038512,-0.00021692,0.00009543,0.004255
 57,0.00672107,0.00370607,0.03004756,0.02413609,0.02051501,0.00013623,0
 .00039385,0.00092925,-0.00234599,0.00013197,0.00113282,0.00017397,-0.0
 0031610,0.00018245,-0.00028981,-0.00002232,-0.00012685,0.00000435,0.00
 006787,0.00000377,0.00080988,0.00025798,0.00039683,-0.00076443,0.00031
 475,0.00020118,0.00002959,0.00043328,-0.00009009,-0.00002799,0.0000084
 0,-0.00000940,-0.00047680,-0.00033045,0.00000419,0.00025527,-0.0001485
 1,0.00016245,0.00008347,0.00008393,-0.00015881,0.00000466,0.00019878,-
 0.00003484,-0.00000147,-0.00000677,0.00001030,-0.00011214,-0.00004822,
 -0.00006593,-0.00001104,0.00001763,-0.00000926,-0.00002218,0.00000772,
 -0.00001401,-0.00085438,-0.00020701,-0.00123879,-0.13570753,0.17178897
 ,0.01030866,-0.00005982,-0.00015999,0.00003550,-0.00001167,0.00006552,
 0.00014592,0.33816116,-0.00031103,0.00025318,-0.00089287,0.00059817,-0
 .00124934,-0.00104628,0.00010704,0.00023591,0.00000665,0.00010481,-0.0
 0008475,0.00004110,-0.00000894,0.00000220,0.00001200,-0.00055312,0.000
 11425,-0.00024594,0.00035395,-0.00019086,-0.00016163,-0.00010754,-0.00
 024263,-0.00002160,0.00001523,0.00001341,0.00001823,0.00017872,-0.0001
 7996,0.00020015,-0.00006059,0.00013668,0.00000064,0.00004255,0.0001066
 2,-0.00010777,0.00006364,-0.00006089,0.00002029,0.00003985,0.00001363,
 -0.00000004,0.00000690,0.00013948,-0.00002530,-0.00000490,-0.00000202,
 0.00000235,0.00000438,0.00001538,-0.00000210,0.00090421,-0.00028298,-0
 .00037095,0.22738730,-0.42230288,-0.04854177,-0.00009823,-0.00023582,0
 .00017317,0.00004874,-0.00002531,-0.00001517,-0.08433387,0.56024027,-0
 .00000848,-0.00029016,-0.00023016,0.00147910,0.00097943,-0.00171562,-0
 .00006998,0.00038136,0.00013542,0.00029552,-0.00019241,0.00020111,0.00
 000186,-0.00011943,-0.00004361,-0.00064490,-0.00091342,-0.00032815,0.0
 0053154,-0.00124824,0.00013446,0.00013198,-0.00026235,0.00014042,0.000
 07698,-0.00002747,-0.00001366,0.00017946,0.00000925,0.00010465,-0.0000
 3141,0.00013011,0.00004769,-0.00003234,0.00001207,-0.00011818,0.000106
 73,-0.00006674,0.00005776,0.00006220,0.00003055,-0.00001672,0.00001742
 ,0.00006568,0.00005129,0.00004636,-0.00003415,0.00001243,0.00003905,0.
 00000631,-0.00000501,0.00000099,-0.00010374,-0.00067252,0.02259580,-0.
 06980440,-0.01741065,0.00029606,-0.00010795,0.00019979,0.00022847,-0.0
 0040323,-0.00008301,0.07639203,0.11932126,0.08710121,-0.00011132,-0.00
 032588,-0.00000424,-0.00036075,0.00004196,0.00196330,-0.00034797,0.000
 35426,-0.00031274,0.00037739,0.00030471,0.00009255,-0.00000232,0.00006
 494,-0.00000118,-0.00018172,0.00039438,-0.00005245,-0.00079079,0.00099
 656,-0.00030068,0.00006468,-0.00062411,0.00004953,-0.00000415,0.000036
 70,0.00002059,0.00046157,0.00000653,0.00007446,-0.00004346,0.00012869,
 0.00009087,0.00025633,0.00017024,-0.00037014,0.00007505,-0.00011139,0.
 00002400,-0.00001660,-0.00001058,-0.00002043,0.00006995,0.00012651,0.0
 0002709,-0.00002327,0.00002916,-0.00000643,-0.00003701,0.00001644,-0.0
 0002190,0.00007064,-0.00013535,-0.00067751,-0.00236627,0.00345713,-0.0
 0195634,-0.00009251,-0.00005229,0.00040316,0.00006688,-0.00000671,0.00
 007338,-0.17801712,-0.10894169,-0.11442666,0.21829996,0.00037226,0.000
 71860,0.00026927,-0.00068687,-0.00095483,-0.00025711,0.00013944,0.0000
 6818,0.00010877,-0.00008946,-0.00007848,-0.00004237,-0.00001093,-0.000
 02531,0.00001877,0.00041712,-0.00025091,-0.00008141,0.00010222,-0.0000
 9391,-0.00016850,-0.00016755,0.00032671,-0.00010547,0.00002068,-0.0000
 2479,0.00000321,-0.00029239,-0.00029140,-0.00001508,0.00011048,-0.0001
 1548,0.00006695,-0.00024335,-0.00010099,0.00008985,0.00005773,0.000037
 29,0.00002891,0.00005533,0.00002949,0.00000228,0.00000879,0.00012415,-
 0.00001425,0.00001794,-0.00002427,0.00000938,0.00002826,0.00000236,0.0
 0000292,-0.00011669,-0.00048155,-0.00104203,-0.04822760,-0.01455297,-0
 .02597222,0.00008861,-0.00016996,0.00017887,-0.00001047,-0.00002097,-0
 .00001159,-0.08531216,-0.12244898,-0.05356564,0.19155186,0.40986548,0.
 00060706,0.00020788,0.00030797,-0.00092226,-0.00057086,-0.00122613,0.0
 0011134,-0.00009183,0.00017037,-0.00011668,-0.00012677,-0.00003226,0.0
 0000273,-0.00005301,0.00001848,0.00043568,-0.00019195,0.00002541,0.000
 71756,-0.00077559,-0.00044814,-0.00012212,0.00035810,-0.00005086,0.000
 02657,-0.00003247,-0.00001350,-0.00043738,-0.00007020,0.00008978,0.000
 08491,-0.00014003,0.00000533,-0.00019837,-0.00010474,0.00010681,0.0000
 2827,0.00003711,0.00002016,0.00003286,0.00001965,0.00000678,0.00003553
 ,0.00005251,0.00001564,0.00002385,-0.00002592,0.00000227,0.00002673,-0
 .00000653,0.00000615,-0.00053820,-0.00009531,-0.00073892,-0.01069554,-
 0.00120871,-0.00917508,0.00009191,-0.00019239,0.00029792,0.00005667,-0
 .00012723,-0.00007288,-0.07318867,-0.03728731,-0.07840735,0.04909186,-
 0.19512741,0.37114240,0.00010001,-0.00001774,0.00005791,-0.00011691,0.
 00018868,-0.00051004,-0.00002167,-0.00012808,0.00004306,-0.00003937,-0
 .00002955,-0.00000073,-0.00000471,-0.00004118,-0.00000135,0.00029030,-
 0.00007414,0.00011273,0.00042016,-0.00001719,0.00061325,-0.00004004,0.
 00008701,-0.00002292,0.00000344,-0.00003691,-0.00000481,-0.00009699,0.
 00066259,-0.00046460,-0.00005997,-0.00026679,-0.00010716,-0.00037106,-
 0.00035688,0.00061882,-0.00006945,-0.00001637,0.00002046,-0.00002428,0
 .00000888,-0.00000559,0.00008105,-0.00010129,0.00005220,0.00001329,-0.
 00003238,-0.00000732,0.00004374,-0.00004353,0.00002693,0.00001894,-0.0
 0007658,0.00010403,-0.00292189,-0.00083508,-0.00090428,0.00000252,-0.0
 0001194,-0.00009884,-0.00005220,0.00002762,-0.00002949,-0.02095621,-0.
 03543559,0.01273223,-0.03734719,-0.05781325,0.03484570,0.06114851,-0.0
 0035015,0.00001410,-0.00010733,0.00019113,-0.00049537,0.00095683,-0.00
 001287,0.00000363,-0.00006779,0.00001163,0.00011104,-0.00001152,-0.000
 00498,0.00007260,-0.00001556,0.00025125,0.00031568,0.00000057,0.000111
 52,-0.00010317,-0.00132834,-0.00000966,-0.00012904,-0.00000763,-0.0000
 2880,0.00002870,0.00000165,-0.00002254,-0.00011526,0.00011536,0.000043
 51,0.00005410,0.00005481,0.00032464,0.00031161,-0.00024374,-0.00003794
 ,0.00002575,-0.00004331,-0.00006880,-0.00002207,0.00000038,-0.00002854
 ,-0.00001737,-0.00002201,-0.00003183,0.00002729,-0.00000653,-0.0000374
 2,0.00000986,-0.00001359,0.00005041,-0.00007781,0.00003432,-0.00429733
 ,-0.00255388,0.00095264,-0.00006385,0.00000570,-0.00012208,0.00000825,
 0.00006266,0.00001369,-0.00288525,-0.01396459,0.00620329,-0.08747207,-
 0.27153744,0.23555300,0.09435968,0.28797329,-0.00029988,0.00028982,-0.
 00025701,0.00027522,-0.00089038,0.00095163,0.00001267,0.00010410,-0.00
 005974,0.00003561,0.00009298,0.00001071,-0.00002237,0.00006629,-0.0000
 0513,0.00005704,0.00050056,-0.00009585,0.00007711,-0.00013115,-0.00099
 854,-0.00010443,-0.00009693,-0.00005152,-0.00001561,0.00001679,0.00000
 300,0.00015606,-0.00021819,-0.00008384,-0.00005738,0.00009704,-0.00007
 255,0.00012070,0.00009348,0.00009315,-0.00005528,-0.00005206,-0.000017
 41,-0.00004903,-0.00001825,0.00001133,0.00004199,0.00005293,0.00000719
 ,-0.00002470,0.00001332,-0.00000891,-0.00002445,0.00001185,-0.00000167
 ,0.00016659,-0.00012970,-0.00010812,-0.00440886,-0.00247087,-0.0001918
 2,-0.00007247,-0.00004313,0.00006664,-0.00000950,0.00006182,0.00001579
 ,-0.01496871,-0.03107711,0.01085841,0.06623988,0.27562389,-0.28205036,
 -0.04707020,-0.24189711,0.27198465\\0.00000541,-0.00000825,0.00000935,
 -0.00000422,-0.00001023,-0.00000050,-0.00000164,-0.00000220,0.00002176
 ,0.00000239,0.00000074,0.00001502,0.00000116,-0.00000726,0.00002947,-0
 .00000302,-0.00000158,-0.00000529,-0.00000636,-0.00000833,-0.00000611,
 0.00000122,0.00000230,0.00000272,0.00000523,0.00000326,0.00002183,-0.0
 0000037,0.00000061,-0.00001689,-0.00000019,0.00000611,-0.00002312,-0.0
 0000506,-0.00000103,-0.00002299,0.00000294,0.00000996,-0.00001645,-0.0
 0000037,0.00000888,-0.00003293,0.00000317,0.00000869,-0.00000288,0.000
 00644,0.00001001,0.00000254,0.00000435,0.00001407,-0.00001882,-0.00001
 073,-0.00000975,0.00002359,0.00000355,-0.00000308,-0.00000994,-0.00000
 867,-0.00001777,0.00001431,-0.00000162,-0.00001796,0.00002719,0.000000
 37,0.00000704,0.00001248,-0.00001364,0.00001917,0.00000203,0.00001968,
 -0.00000341,-0.00002638\\\@


 YOU CAN WIPE THE SLATE CLEAN, BUT YOU'LL STILL
 HAVE TO EAT A LITTLE CHALK DUST.
 Job cpu time:       0 days  0 hours 39 minutes 45.8 seconds.
 Elapsed time:       0 days  0 hours  2 minutes  0.3 seconds.
 File lengths (MBytes):  RWF=   1440 Int=      0 D2E=      0 Chk=     32 Scr=     32
 Normal termination of Gaussian 16 at Thu Feb 21 16:03:52 2019.
