 Entering Gaussian System, Link 0=g16
 Input=rxn908final.com
 Output=rxn908final.log
 Initial command:
 /shared/centos7/gaussian/g16/l1.exe "/scratch/dinius.ab/QMscratch/Gau-140731.inp" -scrdir="/scratch/dinius.ab/QMscratch/"
 Default is to use a total of  20 processors:
                               20 via shared-memory
                                1 via Linda
 Entering Link 1 = /shared/centos7/gaussian/g16/l1.exe PID=    140733.
  
 Copyright (c) 1988,1990,1992,1993,1995,1998,2003,2009,2016,
            Gaussian, Inc.  All Rights Reserved.
  
 This is part of the Gaussian(R) 16 program.  It is based on
 the Gaussian(R) 09 system (copyright 2009, Gaussian, Inc.),
 the Gaussian(R) 03 system (copyright 2003, Gaussian, Inc.),
 the Gaussian(R) 98 system (copyright 1998, Gaussian, Inc.),
 the Gaussian(R) 94 system (copyright 1995, Gaussian, Inc.),
 the Gaussian 92(TM) system (copyright 1992, Gaussian, Inc.),
 the Gaussian 90(TM) system (copyright 1990, Gaussian, Inc.),
 the Gaussian 88(TM) system (copyright 1988, Gaussian, Inc.),
 the Gaussian 86(TM) system (copyright 1986, Carnegie Mellon
 University), and the Gaussian 82(TM) system (copyright 1983,
 Carnegie Mellon University). Gaussian is a federally registered
 trademark of Gaussian, Inc.
  
 This software contains proprietary and confidential information,
 including trade secrets, belonging to Gaussian, Inc.
  
 This software is provided under written license and may be
 used, copied, transmitted, or stored only in accord with that
 written license.
  
 The following legend is applicable only to US Government
 contracts under FAR:
  
                    RESTRICTED RIGHTS LEGEND
  
 Use, reproduction and disclosure by the US Government is
 subject to restrictions as set forth in subparagraphs (a)
 and (c) of the Commercial Computer Software - Restricted
 Rights clause in FAR 52.227-19.
  
 Gaussian, Inc.
 340 Quinnipiac St., Bldg. 40, Wallingford CT 06492
  
  
 ---------------------------------------------------------------
 Warning -- This program may not be used in any manner that
 competes with the business of Gaussian, Inc. or will provide
 assistance to any competitor of Gaussian, Inc.  The licensee
 of this program is prohibited from giving any competitor of
 Gaussian, Inc. access to this program.  By using this program,
 the user acknowledges that Gaussian, Inc. is engaged in the
 business of creating and licensing software in the field of
 computational chemistry and represents and warrants to the
 licensee that it is not a competitor of Gaussian, Inc. and that
 it will not use this program in any manner prohibited above.
 ---------------------------------------------------------------
  

 Cite this work as:
 Gaussian 16, Revision A.03,
 M. J. Frisch, G. W. Trucks, H. B. Schlegel, G. E. Scuseria, 
 M. A. Robb, J. R. Cheeseman, G. Scalmani, V. Barone, 
 G. A. Petersson, H. Nakatsuji, X. Li, M. Caricato, A. V. Marenich, 
 J. Bloino, B. G. Janesko, R. Gomperts, B. Mennucci, H. P. Hratchian, 
 J. V. Ortiz, A. F. Izmaylov, J. L. Sonnenberg, D. Williams-Young, 
 F. Ding, F. Lipparini, F. Egidi, J. Goings, B. Peng, A. Petrone, 
 T. Henderson, D. Ranasinghe, V. G. Zakrzewski, J. Gao, N. Rega, 
 G. Zheng, W. Liang, M. Hada, M. Ehara, K. Toyota, R. Fukuda, 
 J. Hasegawa, M. Ishida, T. Nakajima, Y. Honda, O. Kitao, H. Nakai, 
 T. Vreven, K. Throssell, J. A. Montgomery, Jr., J. E. Peralta, 
 F. Ogliaro, M. J. Bearpark, J. J. Heyd, E. N. Brothers, K. N. Kudin, 
 V. N. Staroverov, T. A. Keith, R. Kobayashi, J. Normand, 
 K. Raghavachari, A. P. Rendell, J. C. Burant, S. S. Iyengar, 
 J. Tomasi, M. Cossi, J. M. Millam, M. Klene, C. Adamo, R. Cammi, 
 J. W. Ochterski, R. L. Martin, K. Morokuma, O. Farkas, 
 J. B. Foresman, and D. J. Fox, Gaussian, Inc., Wallingford CT, 2016.
 
 ******************************************
 Gaussian 16:  EM64L-G16RevA.03 25-Dec-2016
                15-Feb-2019 
 ******************************************
 ----------------------------------------------------------------------
 #m062x/6-311+g(2df,2p) Opt=(ModRedun,Tight,maxcycle=1000,TS) Int(Grid=
 SG1) freq
 ----------------------------------------------------------------------
 1/5=1,6=1000,7=10,18=120,26=2,38=1/1,3;
 2/9=110,12=2,17=6,18=5,40=1/2;
 3/5=4,6=6,7=214,11=2,25=1,30=1,71=1,74=-55,75=1/1,2,3;
 4//1;
 5/5=2,38=5/2;
 6/7=2,8=2,9=2,10=2,28=1/1;
 7//1,2,3,16;
 1/5=1,6=1000,7=10,18=20,26=2/3(2);
 2/9=110/2;
 99//99;
 2/9=110/2;
 3/5=4,6=6,7=214,11=2,25=1,30=1,71=1,74=-55,75=1/1,2,3;
 4/5=5,16=3,69=1/1;
 5/5=2,38=5/2;
 7//1,2,3,16;
 1/5=1,6=1000,7=10,18=20,26=2/3(-5);
 2/9=110/2;
 6/7=2,8=2,9=2,10=2,19=2,28=1/1;
 99/9=1/99;
 -----
 Title
 -----
 Symbolic Z-matrix:
 Charge =  0 Multiplicity = 2
 C                     1.26636   0.42428   0.70388 
 C                     0.3638   -0.61738   0.76705 
 C                     0.82353   1.6804    0.19375 
 C                    -0.46344   1.86063  -0.20719 
 H                     1.53352   2.49467   0.12833 
 C                    -0.979    -0.45816   0.36123 
 H                     0.68489  -1.58249   1.14156 
 C                    -1.4057    0.80046  -0.13566 
 H                    -0.78953   2.81883  -0.59178 
 C                    -1.91612  -1.51867   0.43446 
 C                    -3.20909  -1.33695   0.03197 
 H                    -1.58714  -2.47676   0.81676 
 C                    -3.63118  -0.08427  -0.46534 
 H                    -3.91484  -2.15363   0.0921 
 C                    -2.7489    0.95833  -0.54507 
 H                    -3.06717   1.91949  -0.92879 
 H                    -4.65484   0.04477  -0.78765 
 C                     2.65815   0.24161   1.07192 
 H                     3.21352   0.02774   0.13645 
 H                     2.88105  -0.62993   1.6801 
 H                     3.1938    1.13442   1.38227 
 O                     3.73012  -0.16317  -0.67557 
 O                     3.06111  -1.24974  -1.24036 
 H                     3.62642  -1.99546  -1.00792 
 
 The following ModRedundant input section has been read:
 

 GradGradGradGradGradGradGradGradGradGradGradGradGradGradGradGradGradGrad
 Berny optimization.
 Initialization pass.
                           ----------------------------
                           !    Initial Parameters    !
                           ! (Angstroms and Degrees)  !
 --------------------------                            --------------------------
 ! Name  Definition              Value          Derivative Info.                !
 --------------------------------------------------------------------------------
 ! R1    R(1,2)                  1.3797         estimate D2E/DX2                !
 ! R2    R(1,3)                  1.4262         estimate D2E/DX2                !
 ! R3    R(1,18)                 1.4512         estimate D2E/DX2                !
 ! R4    R(2,6)                  1.4118         estimate D2E/DX2                !
 ! R5    R(2,7)                  1.0839         estimate D2E/DX2                !
 ! R6    R(3,4)                  1.36           estimate D2E/DX2                !
 ! R7    R(3,5)                  1.0823         estimate D2E/DX2                !
 ! R8    R(4,8)                  1.4202         estimate D2E/DX2                !
 ! R9    R(4,9)                  1.0828         estimate D2E/DX2                !
 ! R10   R(6,8)                  1.4188         estimate D2E/DX2                !
 ! R11   R(6,10)                 1.4171         estimate D2E/DX2                !
 ! R12   R(8,15)                 1.4131         estimate D2E/DX2                !
 ! R13   R(10,11)                1.3663         estimate D2E/DX2                !
 ! R14   R(10,12)                1.0827         estimate D2E/DX2                !
 ! R15   R(11,13)                1.4123         estimate D2E/DX2                !
 ! R16   R(11,14)                1.081          estimate D2E/DX2                !
 ! R17   R(13,15)                1.3681         estimate D2E/DX2                !
 ! R18   R(13,17)                1.0809         estimate D2E/DX2                !
 ! R19   R(15,16)                1.0828         estimate D2E/DX2                !
 ! R20   R(18,19)                1.1087         estimate D2E/DX2                !
 ! R21   R(18,20)                1.0859         estimate D2E/DX2                !
 ! R22   R(18,21)                1.0864         estimate D2E/DX2                !
 ! R23   R(19,22)                0.9812         estimate D2E/DX2                !
 ! R24   R(22,23)                1.3954         estimate D2E/DX2                !
 ! R25   R(23,24)                0.9642         estimate D2E/DX2                !
 ! A1    A(2,1,3)              118.5671         estimate D2E/DX2                !
 ! A2    A(2,1,18)             121.382          estimate D2E/DX2                !
 ! A3    A(3,1,18)             119.9574         estimate D2E/DX2                !
 ! A4    A(1,2,6)              121.5931         estimate D2E/DX2                !
 ! A5    A(1,2,7)              119.622          estimate D2E/DX2                !
 ! A6    A(6,2,7)              118.7839         estimate D2E/DX2                !
 ! A7    A(1,3,4)              121.0633         estimate D2E/DX2                !
 ! A8    A(1,3,5)              118.721          estimate D2E/DX2                !
 ! A9    A(4,3,5)              120.2156         estimate D2E/DX2                !
 ! A10   A(3,4,8)              120.9361         estimate D2E/DX2                !
 ! A11   A(3,4,9)              120.4635         estimate D2E/DX2                !
 ! A12   A(8,4,9)              118.6001         estimate D2E/DX2                !
 ! A13   A(2,6,8)              119.1275         estimate D2E/DX2                !
 ! A14   A(2,6,10)             121.9862         estimate D2E/DX2                !
 ! A15   A(8,6,10)             118.8863         estimate D2E/DX2                !
 ! A16   A(4,8,6)              118.7057         estimate D2E/DX2                !
 ! A17   A(4,8,15)             122.1869         estimate D2E/DX2                !
 ! A18   A(6,8,15)             119.1073         estimate D2E/DX2                !
 ! A19   A(6,10,11)            120.7328         estimate D2E/DX2                !
 ! A20   A(6,10,12)            118.6543         estimate D2E/DX2                !
 ! A21   A(11,10,12)           120.6129         estimate D2E/DX2                !
 ! A22   A(10,11,13)           120.2991         estimate D2E/DX2                !
 ! A23   A(10,11,14)           120.062          estimate D2E/DX2                !
 ! A24   A(13,11,14)           119.6389         estimate D2E/DX2                !
 ! A25   A(11,13,15)           120.2456         estimate D2E/DX2                !
 ! A26   A(11,13,17)           119.5974         estimate D2E/DX2                !
 ! A27   A(15,13,17)           120.1562         estimate D2E/DX2                !
 ! A28   A(8,15,13)            120.7288         estimate D2E/DX2                !
 ! A29   A(8,15,16)            118.7682         estimate D2E/DX2                !
 ! A30   A(13,15,16)           120.5023         estimate D2E/DX2                !
 ! A31   A(1,18,19)            106.9003         estimate D2E/DX2                !
 ! A32   A(1,18,20)            116.1004         estimate D2E/DX2                !
 ! A33   A(1,18,21)            116.2228         estimate D2E/DX2                !
 ! A34   A(19,18,20)           102.4105         estimate D2E/DX2                !
 ! A35   A(19,18,21)            98.7761         estimate D2E/DX2                !
 ! A36   A(20,18,21)           113.4762         estimate D2E/DX2                !
 ! A37   A(19,22,23)           103.5356         estimate D2E/DX2                !
 ! A38   A(22,23,24)           102.9184         estimate D2E/DX2                !
 ! A39   L(18,19,22,9,-1)      181.5091         estimate D2E/DX2                !
 ! A40   L(18,19,22,9,-2)      179.0609         estimate D2E/DX2                !
 ! D1    D(3,1,2,6)             -1.033          estimate D2E/DX2                !
 ! D2    D(3,1,2,7)            179.326          estimate D2E/DX2                !
 ! D3    D(18,1,2,6)          -177.5166         estimate D2E/DX2                !
 ! D4    D(18,1,2,7)             2.8424         estimate D2E/DX2                !
 ! D5    D(2,1,3,4)              0.8616         estimate D2E/DX2                !
 ! D6    D(2,1,3,5)           -179.036          estimate D2E/DX2                !
 ! D7    D(18,1,3,4)           177.3967         estimate D2E/DX2                !
 ! D8    D(18,1,3,5)            -2.5009         estimate D2E/DX2                !
 ! D9    D(2,1,18,19)           94.8657         estimate D2E/DX2                !
 ! D10   D(2,1,18,20)          -18.6479         estimate D2E/DX2                !
 ! D11   D(2,1,18,21)         -156.0228         estimate D2E/DX2                !
 ! D12   D(3,1,18,19)          -81.5696         estimate D2E/DX2                !
 ! D13   D(3,1,18,20)          164.9168         estimate D2E/DX2                !
 ! D14   D(3,1,18,21)           27.5418         estimate D2E/DX2                !
 ! D15   D(1,2,6,8)              0.629          estimate D2E/DX2                !
 ! D16   D(1,2,6,10)          -179.3887         estimate D2E/DX2                !
 ! D17   D(7,2,6,8)           -179.7271         estimate D2E/DX2                !
 ! D18   D(7,2,6,10)             0.2552         estimate D2E/DX2                !
 ! D19   D(1,3,4,8)             -0.2817         estimate D2E/DX2                !
 ! D20   D(1,3,4,9)            179.9198         estimate D2E/DX2                !
 ! D21   D(5,3,4,8)            179.6145         estimate D2E/DX2                !
 ! D22   D(5,3,4,9)             -0.1841         estimate D2E/DX2                !
 ! D23   D(3,4,8,6)             -0.1359         estimate D2E/DX2                !
 ! D24   D(3,4,8,15)          -179.9906         estimate D2E/DX2                !
 ! D25   D(9,4,8,6)            179.6663         estimate D2E/DX2                !
 ! D26   D(9,4,8,15)            -0.1884         estimate D2E/DX2                !
 ! D27   D(2,6,8,4)             -0.0269         estimate D2E/DX2                !
 ! D28   D(2,6,8,15)           179.8324         estimate D2E/DX2                !
 ! D29   D(10,6,8,4)           179.9903         estimate D2E/DX2                !
 ! D30   D(10,6,8,15)           -0.1504         estimate D2E/DX2                !
 ! D31   D(2,6,10,11)         -179.8604         estimate D2E/DX2                !
 ! D32   D(2,6,10,12)            0.1824         estimate D2E/DX2                !
 ! D33   D(8,6,10,11)            0.1219         estimate D2E/DX2                !
 ! D34   D(8,6,10,12)         -179.8353         estimate D2E/DX2                !
 ! D35   D(4,8,15,13)          179.8854         estimate D2E/DX2                !
 ! D36   D(4,8,15,16)            0.2069         estimate D2E/DX2                !
 ! D37   D(6,8,15,13)            0.0312         estimate D2E/DX2                !
 ! D38   D(6,8,15,16)         -179.6473         estimate D2E/DX2                !
 ! D39   D(6,10,11,13)           0.027          estimate D2E/DX2                !
 ! D40   D(6,10,11,14)         179.9699         estimate D2E/DX2                !
 ! D41   D(12,10,11,13)        179.9834         estimate D2E/DX2                !
 ! D42   D(12,10,11,14)         -0.0737         estimate D2E/DX2                !
 ! D43   D(10,11,13,15)         -0.1498         estimate D2E/DX2                !
 ! D44   D(10,11,13,17)        179.537          estimate D2E/DX2                !
 ! D45   D(14,11,13,15)        179.9071         estimate D2E/DX2                !
 ! D46   D(14,11,13,17)         -0.4061         estimate D2E/DX2                !
 ! D47   D(11,13,15,8)           0.1191         estimate D2E/DX2                !
 ! D48   D(11,13,15,16)        179.792          estimate D2E/DX2                !
 ! D49   D(17,13,15,8)        -179.5659         estimate D2E/DX2                !
 ! D50   D(17,13,15,16)          0.107          estimate D2E/DX2                !
 ! D51   D(1,18,22,23)         -54.3502         estimate D2E/DX2                !
 ! D52   D(20,18,22,23)         68.3282         estimate D2E/DX2                !
 ! D53   D(21,18,22,23)       -175.3935         estimate D2E/DX2                !
 ! D54   D(19,22,23,24)       -102.6387         estimate D2E/DX2                !
 --------------------------------------------------------------------------------
 Trust Radius=3.00D-01 FncErr=1.00D-05 GrdErr=1.00D-04 EigMax=2.50D+02 EigMin=1.00D-04
 Number of steps in this run=    144 maximum allowed number of steps=    144.
 Search for a saddle point of order  1.
 GradGradGradGradGradGradGradGradGradGradGradGradGradGradGradGradGradGrad

                          Input orientation:                          
 ---------------------------------------------------------------------
 Center     Atomic      Atomic             Coordinates (Angstroms)
 Number     Number       Type             X           Y           Z
 ---------------------------------------------------------------------
      1          6           0        1.266360    0.424280    0.703880
      2          6           0        0.363800   -0.617380    0.767050
      3          6           0        0.823530    1.680400    0.193750
      4          6           0       -0.463440    1.860630   -0.207190
      5          1           0        1.533520    2.494670    0.128330
      6          6           0       -0.979000   -0.458160    0.361230
      7          1           0        0.684890   -1.582490    1.141560
      8          6           0       -1.405700    0.800460   -0.135660
      9          1           0       -0.789530    2.818830   -0.591780
     10          6           0       -1.916120   -1.518670    0.434460
     11          6           0       -3.209090   -1.336950    0.031970
     12          1           0       -1.587140   -2.476760    0.816760
     13          6           0       -3.631180   -0.084270   -0.465340
     14          1           0       -3.914840   -2.153630    0.092100
     15          6           0       -2.748900    0.958330   -0.545070
     16          1           0       -3.067170    1.919490   -0.928790
     17          1           0       -4.654840    0.044770   -0.787650
     18          6           0        2.658150    0.241610    1.071920
     19          1           0        3.213520    0.027740    0.136450
     20          1           0        2.881050   -0.629930    1.680100
     21          1           0        3.193800    1.134420    1.382270
     22          8           0        3.730120   -0.163170   -0.675570
     23          8           0        3.061110   -1.249740   -1.240360
     24          1           0        3.626420   -1.995460   -1.007920
 ---------------------------------------------------------------------
                    Distance matrix (angstroms):
                    1          2          3          4          5
     1  C    0.000000
     2  C    1.379732   0.000000
     3  C    1.426243   2.412430   0.000000
     4  C    2.425976   2.788190   1.359973   0.000000
     5  H    2.165444   3.385419   1.082313   2.121893   0.000000
     6  C    2.436750   1.411791   2.801893   2.442476   3.884096
     7  H    2.134666   1.083879   3.400591   3.872062   4.286029
     8  C    2.825994   2.440550   2.419147   1.420187   3.402801
     9  H    3.411640   3.870934   2.124863   1.082770   2.453609
    10  C    3.738425   2.474060   4.218729   3.733854   5.301003
    11  C    4.856238   3.718019   5.039107   4.221411   6.097782
    12  H    4.070778   2.695539   4.845766   4.596099   5.909955
    13  C    5.060790   4.214600   4.836621   3.726104   5.803232
    14  H    5.819341   4.595909   6.096086   5.302454   7.161887
    15  C    4.238797   3.727388   3.718803   2.480249   4.599231
    16  H    4.866287   4.591638   4.056452   2.702514   4.755490
    17  H    6.117949   5.295496   5.800946   4.604575   6.718395
    18  C    1.451172   2.468775   2.491411   3.741881   2.689133
    19  H    2.066556   2.989104   2.906307   4.122816   2.984662
    20  H    2.161386   2.677754   3.432237   4.577157   3.739913
    21  H    2.163224   3.384701   2.707186   4.053291   2.485795
    22  O    2.884110   3.690470   3.550033   4.679860   3.540540
    23  O    3.131060   3.421265   3.955901   4.812930   4.269362
    24  H    3.788837   3.961605   4.776207   5.677812   5.082574
                    6          7          8          9         10
     6  C    0.000000
     7  H    2.154429   0.000000
     8  C    1.418836   3.417647   0.000000
     9  H    3.418010   4.954796   2.159057   0.000000
    10  C    1.417123   2.696167   2.442116   4.597421   0.000000
    11  C    2.419501   4.056422   2.801578   4.849107   1.366306
    12  H    2.156870   2.463196   3.417630   5.537458   1.082736
    13  C    2.803047   4.843062   2.417477   4.064351   2.410098
    14  H    3.400913   4.752377   3.882564   5.912750   2.124916
    15  C    2.441387   4.592538   1.413055   2.702364   2.790794
    16  H    3.417283   5.534272   2.154476   2.471848   3.873540
    17  H    3.883898   5.906144   3.398981   4.761764   3.382083
    18  C    3.771421   2.688112   4.276148   4.614809   4.942559
    19  H    4.226565   3.161812   4.691304   4.934056   5.365948
    20  H    4.082758   2.453674   4.870239   5.525264   5.035307
    21  H    4.581604   3.705964   4.855002   4.754054   5.835110
    22  O    4.830920   3.819667   5.253259   5.415402   5.911816
    23  O    4.417486   3.380930   5.037467   5.639268   5.258342
    24  H    5.044577   3.666525   5.822391   6.546081   5.746959
                   11         12         13         14         15
    11  C    0.000000
    12  H    2.132084   0.000000
    13  C    1.412333   3.397924   0.000000
    14  H    1.081048   2.459214   2.161817   0.000000
    15  C    2.411029   3.873514   1.368134   3.383740   0.000000
    16  H    3.398176   4.956253   2.132592   4.283815   1.082758
    17  H    2.161277   4.282876   1.080932   2.480831   2.127450
    18  C    6.164240   5.047487   6.482672   7.064094   5.688984
    19  H    6.566827   5.457259   6.872017   7.454788   6.072966
    20  H    6.348702   4.911299   6.878212   7.143355   6.258617
    21  H    6.994854   6.018123   7.174902   7.937794   6.249906
    22  O    7.073260   5.987738   7.364724   7.937044   6.576663
    23  O    6.398581   5.229106   6.837084   7.159354   6.254216
    24  H    6.945445   5.544575   7.524613   7.622707   7.041577
                   16         17         18         19         20
    16  H    0.000000
    17  H    2.460730   0.000000
    18  C    6.292647   7.548283   0.000000
    19  H    6.645338   7.922458   1.108729   0.000000
    20  H    6.977619   7.958307   1.085886   1.710533   0.000000
    21  H    6.719902   8.215658   1.086438   1.666492   1.816438
    22  O    7.113701   8.388287   2.089662   0.981172   2.547149
    23  O    6.906295   7.836874   2.780852   1.884354   2.990932
    24  H    7.754821   8.531725   3.204335   2.360807   3.105753
                   21         22         23         24
    21  H    0.000000
    22  O    2.491201   0.000000
    23  O    3.546831   1.395420   0.000000
    24  H    3.961858   1.865073   0.964211   0.000000
 Stoichiometry    C11H11O2(2)
 Framework group  C1[X(C11H11O2)]
 Deg. of freedom    66
 Full point group                 C1      NOp   1
 Largest Abelian subgroup         C1      NOp   1
 Largest concise Abelian subgroup C1      NOp   1
                         Standard orientation:                         
 ---------------------------------------------------------------------
 Center     Atomic      Atomic             Coordinates (Angstroms)
 Number     Number       Type             X           Y           Z
 ---------------------------------------------------------------------
      1          6           0        1.266361    0.424278    0.703880
      2          6           0        0.363799   -0.617381    0.767050
      3          6           0        0.823532    1.680398    0.193750
      4          6           0       -0.463437    1.860630   -0.207190
      5          1           0        1.533523    2.494667    0.128330
      6          6           0       -0.979000   -0.458159    0.361230
      7          1           0        0.684888   -1.582491    1.141560
      8          6           0       -1.405699    0.800461   -0.135660
      9          1           0       -0.789526    2.818830   -0.591780
     10          6           0       -1.916122   -1.518668    0.434460
     11          6           0       -3.209092   -1.336946    0.031970
     12          1           0       -1.587143   -2.476758    0.816760
     13          6           0       -3.631180   -0.084266   -0.465340
     14          1           0       -3.914843   -2.153625    0.092100
     15          6           0       -2.748899    0.958333   -0.545070
     16          1           0       -3.067167    1.919493   -0.928790
     17          1           0       -4.654840    0.044776   -0.787650
     18          6           0        2.658151    0.241606    1.071920
     19          1           0        3.213520    0.027735    0.136450
     20          1           0        2.881049   -0.629934    1.680100
     21          1           0        3.193802    1.134415    1.382270
     22          8           0        3.730120   -0.163175   -0.675570
     23          8           0        3.061109   -1.249745   -1.240360
     24          1           0        3.626418   -1.995465   -1.007920
 ---------------------------------------------------------------------
 Rotational constants (GHZ):           1.7121075           0.4532618           0.4037541
 Standard basis: 6-311+G(2df,2p) (5D, 7F)
 There are   606 symmetry adapted cartesian basis functions of A   symmetry.
 There are   541 symmetry adapted basis functions of A   symmetry.
   541 basis functions,   797 primitive gaussians,   606 cartesian basis functions
    47 alpha electrons       46 beta electrons
       nuclear repulsion energy       736.1398813256 Hartrees.
 NAtoms=   24 NActive=   24 NUniq=   24 SFac= 1.00D+00 NAtFMM=   60 NAOKFM=F Big=F
 Integral buffers will be    131072 words long.
 Raffenetti 2 integral format.
 Two-electron integral symmetry is turned on.
 One-electron integrals computed using PRISM.
 NBasis=   541 RedAO= T EigKep=  1.06D-06  NBF=   541
 NBsUse=   539 1.00D-06 EigRej=  6.17D-07 NBFU=   539
 ExpMin= 4.38D-02 ExpMax= 8.59D+03 ExpMxC= 1.30D+03 IAcc=2 IRadAn=         4 AccDes= 0.00D+00
 Harris functional with IExCor= 1009 and IRadAn=       4 diagonalized for initial guess.
 HarFok:  IExCor= 1009 AccDes= 0.00D+00 IRadAn=         4 IDoV= 1 UseB2=F ITyADJ=14
 ICtDFT=  3500011 ScaDFX=  1.000000  1.000000  1.000000  1.000000
 FoFCou: FMM=F IPFlag=           0 FMFlag=      100000 FMFlg1=           0
         NFxFlg=           0 DoJE=T BraDBF=F KetDBF=T FulRan=T
         wScrn=  0.000000 ICntrl=       500 IOpCl=  0 I1Cent=   200000004 NGrid=           0
         NMat0=    1 NMatS0=      1 NMatT0=    0 NMatD0=    1 NMtDS0=    0 NMtDT0=    0
 Petite list used in FoFCou.
 Initial guess <Sx>= 0.0000 <Sy>= 0.0000 <Sz>= 0.5000 <S**2>= 0.7500 S= 0.5000
 Requested convergence on RMS density matrix=1.00D-08 within 128 cycles.
 Requested convergence on MAX density matrix=1.00D-06.
 Requested convergence on             energy=1.00D-06.
 No special actions if energy rises.
 SCF Done:  E(UM062X) =  -575.978323526     A.U. after   20 cycles
            NFock= 20  Conv=0.43D-08     -V/T= 2.0028
 <Sx>= 0.0000 <Sy>= 0.0000 <Sz>= 0.5000 <S**2>= 0.7678 S= 0.5089
 <L.S>= 0.000000000000E+00
 Annihilation of the first spin contaminant:
 S**2 before annihilation     0.7678,   after     0.7502

 **********************************************************************

            Population analysis using the SCF density.

 **********************************************************************

 Orbital symmetries:
 Alpha Orbitals:
       Occupied  (A) (A) (A) (A) (A) (A) (A) (A) (A) (A) (A) (A)
                 (A) (A) (A) (A) (A) (A) (A) (A) (A) (A) (A) (A)
                 (A) (A) (A) (A) (A) (A) (A) (A) (A) (A) (A) (A)
                 (A) (A) (A) (A) (A) (A) (A) (A) (A) (A) (A)
       Virtual   (A) (A) (A) (A) (A) (A) (A) (A) (A) (A) (A) (A)
                 (A) (A) (A) (A) (A) (A) (A) (A) (A) (A) (A) (A)
                 (A) (A) (A) (A) (A) (A) (A) (A) (A) (A) (A) (A)
                 (A) (A) (A) (A) (A) (A) (A) (A) (A) (A) (A) (A)
                 (A) (A) (A) (A) (A) (A) (A) (A) (A) (A) (A) (A)
                 (A) (A) (A) (A) (A) (A) (A) (A) (A) (A) (A) (A)
                 (A) (A) (A) (A) (A) (A) (A) (A) (A) (A) (A) (A)
                 (A) (A) (A) (A) (A) (A) (A) (A) (A) (A) (A) (A)
                 (A) (A) (A) (A) (A) (A) (A) (A) (A) (A) (A) (A)
                 (A) (A) (A) (A) (A) (A) (A) (A) (A) (A) (A) (A)
                 (A) (A) (A) (A) (A) (A) (A) (A) (A) (A) (A) (A)
                 (A) (A) (A) (A) (A) (A) (A) (A) (A) (A) (A) (A)
                 (A) (A) (A) (A) (A) (A) (A) (A) (A) (A) (A) (A)
                 (A) (A) (A) (A) (A) (A) (A) (A) (A) (A) (A) (A)
                 (A) (A) (A) (A) (A) (A) (A) (A) (A) (A) (A) (A)
                 (A) (A) (A) (A) (A) (A) (A) (A) (A) (A) (A) (A)
                 (A) (A) (A) (A) (A) (A) (A) (A) (A) (A) (A) (A)
                 (A) (A) (A) (A) (A) (A) (A) (A) (A) (A) (A) (A)
                 (A) (A) (A) (A) (A) (A) (A) (A) (A) (A) (A) (A)
                 (A) (A) (A) (A) (A) (A) (A) (A) (A) (A) (A) (A)
                 (A) (A) (A) (A) (A) (A) (A) (A) (A) (A) (A) (A)
                 (A) (A) (A) (A) (A) (A) (A) (A) (A) (A) (A) (A)
                 (A) (A) (A) (A) (A) (A) (A) (A) (A) (A) (A) (A)
                 (A) (A) (A) (A) (A) (A) (A) (A) (A) (A) (A) (A)
                 (A) (A) (A) (A) (A) (A) (A) (A) (A) (A) (A) (A)
                 (A) (A) (A) (A) (A) (A) (A) (A) (A) (A) (A) (A)
                 (A) (A) (A) (A) (A) (A) (A) (A) (A) (A) (A) (A)
                 (A) (A) (A) (A) (A) (A) (A) (A) (A) (A) (A) (A)
                 (A) (A) (A) (A) (A) (A) (A) (A) (A) (A) (A) (A)
                 (A) (A) (A) (A) (A) (A) (A) (A) (A) (A) (A) (A)
                 (A) (A) (A) (A) (A) (A) (A) (A) (A) (A) (A) (A)
                 (A) (A) (A) (A) (A) (A) (A) (A) (A) (A) (A) (A)
                 (A) (A) (A) (A) (A) (A) (A) (A) (A) (A) (A) (A)
                 (A) (A) (A) (A) (A) (A) (A) (A) (A) (A) (A) (A)
                 (A) (A) (A) (A) (A) (A) (A) (A) (A) (A) (A) (A)
                 (A) (A) (A) (A) (A) (A) (A) (A) (A) (A) (A) (A)
                 (A) (A) (A) (A) (A) (A) (A) (A) (A) (A) (A) (A)
                 (A) (A) (A) (A) (A) (A) (A) (A) (A) (A) (A) (A)
                 (A) (A) (A) (A) (A) (A) (A) (A) (A) (A) (A) (A)
                 (A) (A) (A) (A) (A) (A) (A) (A) (A) (A) (A) (A)
                 (A) (A) (A) (A) (A) (A) (A) (A) (A) (A) (A) (A)
 Beta  Orbitals:
       Occupied  (A) (A) (A) (A) (A) (A) (A) (A) (A) (A) (A) (A)
                 (A) (A) (A) (A) (A) (A) (A) (A) (A) (A) (A) (A)
                 (A) (A) (A) (A) (A) (A) (A) (A) (A) (A) (A) (A)
                 (A) (A) (A) (A) (A) (A) (A) (A) (A) (A)
       Virtual   (A) (A) (A) (A) (A) (A) (A) (A) (A) (A) (A) (A)
                 (A) (A) (A) (A) (A) (A) (A) (A) (A) (A) (A) (A)
                 (A) (A) (A) (A) (A) (A) (A) (A) (A) (A) (A) (A)
                 (A) (A) (A) (A) (A) (A) (A) (A) (A) (A) (A) (A)
                 (A) (A) (A) (A) (A) (A) (A) (A) (A) (A) (A) (A)
                 (A) (A) (A) (A) (A) (A) (A) (A) (A) (A) (A) (A)
                 (A) (A) (A) (A) (A) (A) (A) (A) (A) (A) (A) (A)
                 (A) (A) (A) (A) (A) (A) (A) (A) (A) (A) (A) (A)
                 (A) (A) (A) (A) (A) (A) (A) (A) (A) (A) (A) (A)
                 (A) (A) (A) (A) (A) (A) (A) (A) (A) (A) (A) (A)
                 (A) (A) (A) (A) (A) (A) (A) (A) (A) (A) (A) (A)
                 (A) (A) (A) (A) (A) (A) (A) (A) (A) (A) (A) (A)
                 (A) (A) (A) (A) (A) (A) (A) (A) (A) (A) (A) (A)
                 (A) (A) (A) (A) (A) (A) (A) (A) (A) (A) (A) (A)
                 (A) (A) (A) (A) (A) (A) (A) (A) (A) (A) (A) (A)
                 (A) (A) (A) (A) (A) (A) (A) (A) (A) (A) (A) (A)
                 (A) (A) (A) (A) (A) (A) (A) (A) (A) (A) (A) (A)
                 (A) (A) (A) (A) (A) (A) (A) (A) (A) (A) (A) (A)
                 (A) (A) (A) (A) (A) (A) (A) (A) (A) (A) (A) (A)
                 (A) (A) (A) (A) (A) (A) (A) (A) (A) (A) (A) (A)
                 (A) (A) (A) (A) (A) (A) (A) (A) (A) (A) (A) (A)
                 (A) (A) (A) (A) (A) (A) (A) (A) (A) (A) (A) (A)
                 (A) (A) (A) (A) (A) (A) (A) (A) (A) (A) (A) (A)
                 (A) (A) (A) (A) (A) (A) (A) (A) (A) (A) (A) (A)
                 (A) (A) (A) (A) (A) (A) (A) (A) (A) (A) (A) (A)
                 (A) (A) (A) (A) (A) (A) (A) (A) (A) (A) (A) (A)
                 (A) (A) (A) (A) (A) (A) (A) (A) (A) (A) (A) (A)
                 (A) (A) (A) (A) (A) (A) (A) (A) (A) (A) (A) (A)
                 (A) (A) (A) (A) (A) (A) (A) (A) (A) (A) (A) (A)
                 (A) (A) (A) (A) (A) (A) (A) (A) (A) (A) (A) (A)
                 (A) (A) (A) (A) (A) (A) (A) (A) (A) (A) (A) (A)
                 (A) (A) (A) (A) (A) (A) (A) (A) (A) (A) (A) (A)
                 (A) (A) (A) (A) (A) (A) (A) (A) (A) (A) (A) (A)
                 (A) (A) (A) (A) (A) (A) (A) (A) (A) (A) (A) (A)
                 (A) (A) (A) (A) (A) (A) (A) (A) (A) (A) (A) (A)
                 (A) (A) (A) (A) (A) (A) (A) (A) (A) (A) (A) (A)
                 (A) (A) (A) (A) (A) (A) (A) (A) (A) (A) (A) (A)
                 (A) (A) (A) (A) (A) (A) (A) (A) (A) (A) (A) (A)
                 (A) (A) (A) (A) (A) (A) (A) (A) (A) (A) (A) (A)
                 (A) (A) (A) (A) (A) (A) (A) (A) (A) (A) (A) (A)
                 (A) (A) (A) (A) (A) (A) (A) (A) (A) (A) (A) (A)
                 (A)
 The electronic state is 2-A.
 Alpha  occ. eigenvalues --  -19.68888 -19.67604 -10.55878 -10.55537 -10.55465
 Alpha  occ. eigenvalues --  -10.54987 -10.54762 -10.54741 -10.54702 -10.54665
 Alpha  occ. eigenvalues --  -10.54621 -10.54562 -10.54470  -1.28406  -1.03427
 Alpha  occ. eigenvalues --   -0.99044  -0.93982  -0.88507  -0.86715  -0.82837
 Alpha  occ. eigenvalues --   -0.79431  -0.71396  -0.69590  -0.68692  -0.63970
 Alpha  occ. eigenvalues --   -0.60152  -0.59739  -0.58839  -0.56675  -0.53527
 Alpha  occ. eigenvalues --   -0.52360  -0.51804  -0.49866  -0.48852  -0.47749
 Alpha  occ. eigenvalues --   -0.47205  -0.46591  -0.43453  -0.42548  -0.40327
 Alpha  occ. eigenvalues --   -0.40094  -0.39203  -0.38093  -0.35673  -0.32511
 Alpha  occ. eigenvalues --   -0.28558  -0.24677
 Alpha virt. eigenvalues --   -0.01816   0.00667   0.01180   0.01515   0.01922
 Alpha virt. eigenvalues --    0.02842   0.03226   0.03485   0.04907   0.05296
 Alpha virt. eigenvalues --    0.05898   0.06469   0.07074   0.07326   0.08022
 Alpha virt. eigenvalues --    0.08804   0.08984   0.10070   0.10466   0.11681
 Alpha virt. eigenvalues --    0.12201   0.12891   0.12981   0.13585   0.14221
 Alpha virt. eigenvalues --    0.14449   0.14653   0.15635   0.16423   0.16976
 Alpha virt. eigenvalues --    0.17538   0.17586   0.18576   0.18799   0.19145
 Alpha virt. eigenvalues --    0.19177   0.19872   0.20009   0.20287   0.21205
 Alpha virt. eigenvalues --    0.21432   0.21784   0.22160   0.22416   0.23487
 Alpha virt. eigenvalues --    0.23720   0.24230   0.25100   0.25352   0.25659
 Alpha virt. eigenvalues --    0.26115   0.26573   0.26972   0.27579   0.27747
 Alpha virt. eigenvalues --    0.28182   0.28955   0.29835   0.30478   0.31059
 Alpha virt. eigenvalues --    0.31144   0.31990   0.32527   0.33576   0.33806
 Alpha virt. eigenvalues --    0.34232   0.35436   0.35785   0.36159   0.37346
 Alpha virt. eigenvalues --    0.38111   0.39600   0.41047   0.42764   0.46030
 Alpha virt. eigenvalues --    0.46671   0.48040   0.49472   0.50617   0.50991
 Alpha virt. eigenvalues --    0.52470   0.52769   0.54344   0.54738   0.55100
 Alpha virt. eigenvalues --    0.55363   0.56121   0.56331   0.56950   0.57835
 Alpha virt. eigenvalues --    0.58238   0.58320   0.58878   0.59354   0.59823
 Alpha virt. eigenvalues --    0.60775   0.61099   0.62815   0.64811   0.65069
 Alpha virt. eigenvalues --    0.65582   0.66280   0.66985   0.67190   0.67257
 Alpha virt. eigenvalues --    0.67912   0.68505   0.69181   0.69657   0.69807
 Alpha virt. eigenvalues --    0.70210   0.72548   0.72739   0.72810   0.73835
 Alpha virt. eigenvalues --    0.74432   0.74666   0.75586   0.76167   0.76668
 Alpha virt. eigenvalues --    0.77241   0.77913   0.78704   0.80231   0.81331
 Alpha virt. eigenvalues --    0.81913   0.83053   0.83526   0.83919   0.84327
 Alpha virt. eigenvalues --    0.85627   0.86812   0.87789   0.88811   0.89596
 Alpha virt. eigenvalues --    0.90215   0.91645   0.92208   0.93275   0.94564
 Alpha virt. eigenvalues --    0.96772   0.97534   0.98345   0.99460   1.00740
 Alpha virt. eigenvalues --    1.01577   1.03581   1.04809   1.05178   1.06119
 Alpha virt. eigenvalues --    1.08166   1.08373   1.09114   1.10038   1.10426
 Alpha virt. eigenvalues --    1.12260   1.12881   1.13645   1.14684   1.16176
 Alpha virt. eigenvalues --    1.16848   1.17296   1.17945   1.18522   1.20045
 Alpha virt. eigenvalues --    1.20776   1.21124   1.21940   1.23411   1.24028
 Alpha virt. eigenvalues --    1.25577   1.26313   1.28407   1.29412   1.30095
 Alpha virt. eigenvalues --    1.30841   1.32417   1.32893   1.33909   1.34672
 Alpha virt. eigenvalues --    1.35598   1.35968   1.36515   1.38339   1.38894
 Alpha virt. eigenvalues --    1.39501   1.40863   1.41096   1.41434   1.41703
 Alpha virt. eigenvalues --    1.43107   1.45079   1.46152   1.46431   1.47082
 Alpha virt. eigenvalues --    1.48564   1.49679   1.50647   1.51294   1.53120
 Alpha virt. eigenvalues --    1.54263   1.56333   1.57355   1.58117   1.60437
 Alpha virt. eigenvalues --    1.62479   1.65781   1.68332   1.69477   1.70563
 Alpha virt. eigenvalues --    1.71265   1.73951   1.74955   1.75490   1.75803
 Alpha virt. eigenvalues --    1.76704   1.77524   1.79588   1.81830   1.83469
 Alpha virt. eigenvalues --    1.88285   1.89299   1.92077   1.94553   1.97412
 Alpha virt. eigenvalues --    1.99182   2.02600   2.04653   2.04801   2.12640
 Alpha virt. eigenvalues --    2.13691   2.16645   2.21250   2.27568   2.29181
 Alpha virt. eigenvalues --    2.32376   2.35718   2.38758   2.42855   2.47597
 Alpha virt. eigenvalues --    2.49152   2.53482   2.54501   2.57449   2.59015
 Alpha virt. eigenvalues --    2.63192   2.63533   2.66007   2.66713   2.68029
 Alpha virt. eigenvalues --    2.69742   2.71056   2.74084   2.75155   2.75768
 Alpha virt. eigenvalues --    2.76660   2.77040   2.77456   2.77950   2.78740
 Alpha virt. eigenvalues --    2.80150   2.80772   2.81891   2.82958   2.83368
 Alpha virt. eigenvalues --    2.84706   2.84869   2.85620   2.86141   2.86432
 Alpha virt. eigenvalues --    2.86884   2.88171   2.88544   2.89264   2.89866
 Alpha virt. eigenvalues --    2.90696   2.91276   2.92665   2.94730   2.96235
 Alpha virt. eigenvalues --    2.97874   2.99226   3.00145   3.02037   3.03774
 Alpha virt. eigenvalues --    3.05530   3.06353   3.07866   3.09530   3.10033
 Alpha virt. eigenvalues --    3.11197   3.11785   3.13331   3.14907   3.15817
 Alpha virt. eigenvalues --    3.15995   3.17855   3.18274   3.18966   3.19519
 Alpha virt. eigenvalues --    3.20054   3.20725   3.21450   3.22827   3.23247
 Alpha virt. eigenvalues --    3.23901   3.24689   3.26771   3.27068   3.29360
 Alpha virt. eigenvalues --    3.30768   3.30838   3.32064   3.33307   3.34225
 Alpha virt. eigenvalues --    3.34389   3.36063   3.37373   3.38814   3.39671
 Alpha virt. eigenvalues --    3.41611   3.42266   3.43504   3.44481   3.45390
 Alpha virt. eigenvalues --    3.46404   3.47629   3.48762   3.50204   3.51209
 Alpha virt. eigenvalues --    3.51847   3.53329   3.53581   3.55612   3.55779
 Alpha virt. eigenvalues --    3.57025   3.58504   3.59818   3.62550   3.63472
 Alpha virt. eigenvalues --    3.64208   3.65872   3.66882   3.69310   3.70241
 Alpha virt. eigenvalues --    3.70942   3.72365   3.74406   3.74459   3.75971
 Alpha virt. eigenvalues --    3.77050   3.77677   3.77920   3.79018   3.79932
 Alpha virt. eigenvalues --    3.81787   3.82400   3.82977   3.86582   3.88112
 Alpha virt. eigenvalues --    3.88375   3.89780   3.92793   3.93009   3.96454
 Alpha virt. eigenvalues --    3.97001   3.98181   3.99077   4.03496   4.03854
 Alpha virt. eigenvalues --    4.05391   4.08038   4.08445   4.08535   4.11602
 Alpha virt. eigenvalues --    4.12644   4.13610   4.14917   4.15847   4.16463
 Alpha virt. eigenvalues --    4.18509   4.18809   4.21513   4.23196   4.24378
 Alpha virt. eigenvalues --    4.26048   4.27455   4.31640   4.32584   4.32770
 Alpha virt. eigenvalues --    4.33345   4.35838   4.36844   4.38102   4.39185
 Alpha virt. eigenvalues --    4.39627   4.40173   4.41324   4.42848   4.43554
 Alpha virt. eigenvalues --    4.44920   4.45878   4.47206   4.49504   4.50200
 Alpha virt. eigenvalues --    4.51591   4.53048   4.55377   4.56492   4.57172
 Alpha virt. eigenvalues --    4.59835   4.61603   4.61859   4.62931   4.63874
 Alpha virt. eigenvalues --    4.66073   4.67374   4.71379   4.73497   4.74228
 Alpha virt. eigenvalues --    4.74854   4.79761   4.80431   4.84116   4.88247
 Alpha virt. eigenvalues --    4.94628   4.95406   4.96933   4.98253   4.99678
 Alpha virt. eigenvalues --    5.03699   5.12067   5.13932   5.16529   5.18979
 Alpha virt. eigenvalues --    5.19946   5.21163   5.22059   5.25869   5.26398
 Alpha virt. eigenvalues --    5.28589   5.33104   5.36505   5.43753   5.48318
 Alpha virt. eigenvalues --    5.50195   5.52791   5.55817   5.57634   5.58298
 Alpha virt. eigenvalues --    5.62568   5.66155   5.69969   5.71521   5.76098
 Alpha virt. eigenvalues --    5.78047   5.79118   5.81916   5.84136   5.93168
 Alpha virt. eigenvalues --    6.02270   6.08188   6.13600   6.19112   6.42969
 Alpha virt. eigenvalues --    6.55916   6.82178   6.88504   6.90255   7.01311
 Alpha virt. eigenvalues --    7.12810   7.15087   7.29825   7.32296   7.47329
 Alpha virt. eigenvalues --    7.52300   7.66706   7.81775   8.01212  23.93003
 Alpha virt. eigenvalues --   24.22430  24.54267  24.58609  24.63965  24.68525
 Alpha virt. eigenvalues --   24.75660  24.81187  24.85592  25.11614  25.23612
 Alpha virt. eigenvalues --   50.01776  50.14057
  Beta  occ. eigenvalues --  -19.68801 -19.66713 -10.55961 -10.55538 -10.55452
  Beta  occ. eigenvalues --  -10.54870 -10.54777 -10.54718 -10.54705 -10.54641
  Beta  occ. eigenvalues --  -10.54618 -10.54561 -10.53875  -1.26697  -1.01327
  Beta  occ. eigenvalues --   -0.98880  -0.93710  -0.88223  -0.86146  -0.82644
  Beta  occ. eigenvalues --   -0.78139  -0.71244  -0.69001  -0.68599  -0.62118
  Beta  occ. eigenvalues --   -0.59605  -0.58705  -0.57928  -0.56238  -0.52729
  Beta  occ. eigenvalues --   -0.52151  -0.51136  -0.49563  -0.48719  -0.47288
  Beta  occ. eigenvalues --   -0.46915  -0.46070  -0.43206  -0.41231  -0.40085
  Beta  occ. eigenvalues --   -0.39203  -0.38614  -0.36723  -0.35031  -0.30390
  Beta  occ. eigenvalues --   -0.27470
  Beta virt. eigenvalues --   -0.07181  -0.01190   0.00848   0.01506   0.01764
  Beta virt. eigenvalues --    0.02307   0.02937   0.03307   0.03607   0.05113
  Beta virt. eigenvalues --    0.05395   0.06134   0.06494   0.07152   0.07439
  Beta virt. eigenvalues --    0.08084   0.08907   0.09129   0.10178   0.10497
  Beta virt. eigenvalues --    0.11763   0.12267   0.13029   0.13030   0.13680
  Beta virt. eigenvalues --    0.14158   0.14535   0.14772   0.15650   0.16477
  Beta virt. eigenvalues --    0.17112   0.17543   0.17673   0.18655   0.18844
  Beta virt. eigenvalues --    0.19199   0.19269   0.19775   0.20058   0.20346
  Beta virt. eigenvalues --    0.21245   0.21529   0.21849   0.22200   0.22497
  Beta virt. eigenvalues --    0.23523   0.23751   0.24246   0.25122   0.25511
  Beta virt. eigenvalues --    0.25857   0.26165   0.26566   0.27029   0.27678
  Beta virt. eigenvalues --    0.27726   0.28258   0.28936   0.29871   0.30473
  Beta virt. eigenvalues --    0.31111   0.31367   0.32010   0.32843   0.33698
  Beta virt. eigenvalues --    0.33941   0.34120   0.35505   0.36037   0.36331
  Beta virt. eigenvalues --    0.37634   0.38257   0.39708   0.41153   0.42937
  Beta virt. eigenvalues --    0.46720   0.46754   0.48377   0.49605   0.50767
  Beta virt. eigenvalues --    0.51104   0.52652   0.53209   0.54720   0.54969
  Beta virt. eigenvalues --    0.55212   0.55466   0.56230   0.56471   0.57091
  Beta virt. eigenvalues --    0.57970   0.58352   0.58544   0.59032   0.59451
  Beta virt. eigenvalues --    0.60037   0.60908   0.61379   0.62957   0.65110
  Beta virt. eigenvalues --    0.65139   0.65911   0.66640   0.67144   0.67263
  Beta virt. eigenvalues --    0.67365   0.67969   0.68525   0.69311   0.69814
  Beta virt. eigenvalues --    0.69939   0.70414   0.72640   0.72826   0.72920
  Beta virt. eigenvalues --    0.73885   0.74529   0.74805   0.75654   0.76267
  Beta virt. eigenvalues --    0.76692   0.77532   0.78073   0.78853   0.80800
  Beta virt. eigenvalues --    0.81461   0.82005   0.83267   0.83583   0.84073
  Beta virt. eigenvalues --    0.84436   0.85681   0.86970   0.88068   0.88909
  Beta virt. eigenvalues --    0.89663   0.90334   0.91839   0.92613   0.93593
  Beta virt. eigenvalues --    0.94905   0.97130   0.97797   0.98526   0.99610
  Beta virt. eigenvalues --    1.00757   1.01704   1.03627   1.04918   1.05313
  Beta virt. eigenvalues --    1.06277   1.08238   1.08461   1.09341   1.10091
  Beta virt. eigenvalues --    1.10425   1.12291   1.12963   1.13724   1.14757
  Beta virt. eigenvalues --    1.16275   1.17084   1.17390   1.18053   1.18795
  Beta virt. eigenvalues --    1.20089   1.20886   1.21254   1.22227   1.23497
  Beta virt. eigenvalues --    1.24034   1.25843   1.26417   1.28614   1.29507
  Beta virt. eigenvalues --    1.30255   1.31072   1.32636   1.32975   1.34012
  Beta virt. eigenvalues --    1.34726   1.35711   1.36246   1.36590   1.38441
  Beta virt. eigenvalues --    1.38974   1.39576   1.40999   1.41216   1.41589
  Beta virt. eigenvalues --    1.42070   1.43459   1.45584   1.46246   1.46585
  Beta virt. eigenvalues --    1.47451   1.48880   1.49893   1.50759   1.51459
  Beta virt. eigenvalues --    1.53651   1.54432   1.56640   1.57551   1.58618
  Beta virt. eigenvalues --    1.60847   1.62819   1.66031   1.68644   1.69753
  Beta virt. eigenvalues --    1.71015   1.71600   1.74068   1.75155   1.75737
  Beta virt. eigenvalues --    1.76087   1.76785   1.77708   1.79679   1.81985
  Beta virt. eigenvalues --    1.83608   1.88410   1.89419   1.92267   1.94681
  Beta virt. eigenvalues --    1.97631   1.99419   2.02689   2.04730   2.05129
  Beta virt. eigenvalues --    2.12899   2.13974   2.17112   2.21425   2.27974
  Beta virt. eigenvalues --    2.29808   2.33568   2.36669   2.38964   2.43464
  Beta virt. eigenvalues --    2.48135   2.49531   2.53776   2.54610   2.57871
  Beta virt. eigenvalues --    2.59491   2.63388   2.63840   2.66306   2.67142
  Beta virt. eigenvalues --    2.68530   2.70070   2.71247   2.74406   2.75403
  Beta virt. eigenvalues --    2.75814   2.76869   2.77235   2.77867   2.78348
  Beta virt. eigenvalues --    2.79373   2.80506   2.81106   2.82320   2.83219
  Beta virt. eigenvalues --    2.83549   2.84886   2.85109   2.85843   2.86462
  Beta virt. eigenvalues --    2.86736   2.87164   2.88476   2.88766   2.89639
  Beta virt. eigenvalues --    2.90259   2.90936   2.91638   2.92988   2.95030
  Beta virt. eigenvalues --    2.96416   2.98138   2.99612   3.00519   3.02483
  Beta virt. eigenvalues --    3.03989   3.06232   3.06924   3.08479   3.10074
  Beta virt. eigenvalues --    3.10491   3.11646   3.12197   3.13589   3.15472
  Beta virt. eigenvalues --    3.15996   3.16539   3.18128   3.18806   3.19346
  Beta virt. eigenvalues --    3.19950   3.20855   3.21312   3.21808   3.23145
  Beta virt. eigenvalues --    3.23666   3.24393   3.25372   3.27232   3.27619
  Beta virt. eigenvalues --    3.29891   3.31062   3.31354   3.32843   3.33859
  Beta virt. eigenvalues --    3.34629   3.34790   3.36588   3.38303   3.39416
  Beta virt. eigenvalues --    3.40303   3.42162   3.42722   3.43745   3.44944
  Beta virt. eigenvalues --    3.46154   3.47075   3.48250   3.49254   3.50767
  Beta virt. eigenvalues --    3.51794   3.52713   3.54071   3.54474   3.56097
  Beta virt. eigenvalues --    3.56600   3.57698   3.59184   3.60761   3.63187
  Beta virt. eigenvalues --    3.64240   3.65043   3.66323   3.67406   3.69828
  Beta virt. eigenvalues --    3.70518   3.71848   3.72757   3.74733   3.74817
  Beta virt. eigenvalues --    3.76351   3.77531   3.78010   3.78461   3.79188
  Beta virt. eigenvalues --    3.80263   3.82286   3.82743   3.83357   3.87419
  Beta virt. eigenvalues --    3.88965   3.88981   3.90420   3.93129   3.93656
  Beta virt. eigenvalues --    3.96949   3.97518   3.98482   3.99924   4.04367
  Beta virt. eigenvalues --    4.04661   4.06283   4.08515   4.08617   4.09529
  Beta virt. eigenvalues --    4.11865   4.13101   4.14028   4.15217   4.16396
  Beta virt. eigenvalues --    4.16763   4.19022   4.19481   4.22077   4.23843
  Beta virt. eigenvalues --    4.25522   4.26663   4.28229   4.32262   4.32782
  Beta virt. eigenvalues --    4.33209   4.33892   4.36226   4.37260   4.38412
  Beta virt. eigenvalues --    4.39798   4.40177   4.40748   4.41918   4.43338
  Beta virt. eigenvalues --    4.44141   4.45485   4.46450   4.47718   4.50139
  Beta virt. eigenvalues --    4.50535   4.52029   4.53598   4.55956   4.56925
  Beta virt. eigenvalues --    4.57868   4.60125   4.61834   4.62391   4.63506
  Beta virt. eigenvalues --    4.63958   4.66788   4.67798   4.71833   4.73867
  Beta virt. eigenvalues --    4.74723   4.75294   4.80002   4.80668   4.84821
  Beta virt. eigenvalues --    4.89284   4.94936   4.95879   4.97390   4.98743
  Beta virt. eigenvalues --    5.00120   5.04043   5.12261   5.14233   5.16951
  Beta virt. eigenvalues --    5.19700   5.20337   5.21357   5.22828   5.26291
  Beta virt. eigenvalues --    5.26799   5.28883   5.34456   5.36938   5.44381
  Beta virt. eigenvalues --    5.48723   5.51619   5.53209   5.56077   5.58927
  Beta virt. eigenvalues --    5.60269   5.63447   5.66950   5.70400   5.72172
  Beta virt. eigenvalues --    5.76639   5.78910   5.79908   5.82529   5.85044
  Beta virt. eigenvalues --    5.93642   6.02812   6.08392   6.13791   6.20054
  Beta virt. eigenvalues --    6.43272   6.56173   6.82546   6.88997   6.90323
  Beta virt. eigenvalues --    7.01767   7.13168   7.17712   7.30555   7.34617
  Beta virt. eigenvalues --    7.47495   7.53996   7.67135   7.83958   8.01217
  Beta virt. eigenvalues --   23.93051  24.22494  24.54426  24.58726  24.64008
  Beta virt. eigenvalues --   24.69416  24.75759  24.81406  24.85740  25.11702
  Beta virt. eigenvalues --   25.23719  50.01719  50.13436
          Condensed to atoms (all electrons):
               1          2          3          4          5          6
     1  C    9.909284  -0.092136   0.125074  -0.773923   0.059814  -0.403958
     2  C   -0.092136   8.089035  -1.927028   1.569623   0.052493  -1.026619
     3  C    0.125074  -1.927028   9.599805  -1.174994   0.216957   0.767124
     4  C   -0.773923   1.569623  -1.174994  11.496045   0.091746  -3.197603
     5  H    0.059814   0.052493   0.216957   0.091746   0.478458  -0.046529
     6  C   -0.403958  -1.026619   0.767124  -3.197603  -0.046529  15.833602
     7  H    0.005137   0.372778   0.017980  -0.032797  -0.000164   0.012124
     8  C    0.410536  -1.460431  -0.768081  -3.890906  -0.009986  -1.971834
     9  H   -0.008883  -0.036103   0.081881   0.283708  -0.007586  -0.036302
    10  C   -0.876986   0.401867   0.100202   1.599276   0.004987  -3.415178
    11  C   -0.489838  -0.700213   0.091558   0.300397  -0.001375  -0.138790
    12  H    0.010521   0.058834   0.002670   0.003701  -0.000004  -0.088059
    13  C    0.135785   0.103796  -0.306904  -0.930177   0.001855   0.778163
    14  H    0.002468   0.003230  -0.002259   0.003231   0.000000   0.054970
    15  C   -0.359901   0.397249   0.557432   0.953245   0.012306  -1.248018
    16  H   -0.002487   0.002596   0.012976   0.096998  -0.000004  -0.085728
    17  H    0.001190   0.002767  -0.000958   0.006064  -0.000001  -0.015280
    18  C   -1.639378   0.053785  -0.856798  -0.229343  -0.008892  -0.073703
    19  H   -0.005880   0.039165  -0.036905   0.002399  -0.002519  -0.004434
    20  H   -0.223260   0.111362  -0.046167   0.010401   0.000057   0.018358
    21  H   -0.143413   0.043624   0.000349   0.014175   0.000209   0.008068
    22  O    0.164900  -0.000134  -0.018521   0.005449   0.000188  -0.003368
    23  O   -0.077535  -0.100423   0.079059  -0.027806  -0.000059   0.026064
    24  H   -0.047899   0.016353  -0.006219   0.000386  -0.000014   0.001469
               7          8          9         10         11         12
     1  C    0.005137   0.410536  -0.008883  -0.876986  -0.489838   0.010521
     2  C    0.372778  -1.460431  -0.036103   0.401867  -0.700213   0.058834
     3  C    0.017980  -0.768081   0.081881   0.100202   0.091558   0.002670
     4  C   -0.032797  -3.890906   0.283708   1.599276   0.300397   0.003701
     5  H   -0.000164  -0.009986  -0.007586   0.004987  -0.001375  -0.000004
     6  C    0.012124  -1.971834  -0.036302  -3.415178  -0.138790  -0.088059
     7  H    0.479825  -0.080590   0.000039   0.050150   0.023689   0.003503
     8  C   -0.080590  19.122685   0.049130  -1.607335   0.028242  -0.080155
     9  H    0.000039   0.049130   0.478961  -0.004812   0.000827   0.000015
    10  C    0.050150  -1.607335  -0.004812   8.765371   0.394884   0.433346
    11  C    0.023689   0.028242   0.000827   0.394884   6.515249   0.032600
    12  H    0.003503  -0.080155   0.000015   0.433346   0.032600   0.481448
    13  C    0.000358   0.390425   0.006838  -0.903252   0.294209  -0.004333
    14  H   -0.000008  -0.004727  -0.000003  -0.048269   0.351196  -0.007191
    15  C    0.000473  -4.873312   0.028022   1.662224  -0.281666  -0.000391
    16  H    0.000014  -0.118785   0.002584   0.003213   0.002539   0.000039
    17  H   -0.000004   0.057457  -0.000008   0.012185   0.007188  -0.000096
    18  C   -0.007316   0.393305   0.004498  -0.345371  -0.026255  -0.002033
    19  H    0.000542   0.005487   0.000037  -0.003269   0.000777   0.000005
    20  H    0.000334  -0.000651   0.000009  -0.000306   0.000736   0.000010
    21  H    0.000326  -0.002097  -0.000011   0.002504   0.000381  -0.000000
    22  O   -0.000201  -0.000879   0.000003   0.009987   0.000750  -0.000002
    23  O   -0.001623   0.015369  -0.000005  -0.006618  -0.002210  -0.000026
    24  H   -0.000052   0.002879   0.000000  -0.004049  -0.000225   0.000002
              13         14         15         16         17         18
     1  C    0.135785   0.002468  -0.359901  -0.002487   0.001190  -1.639378
     2  C    0.103796   0.003230   0.397249   0.002596   0.002767   0.053785
     3  C   -0.306904  -0.002259   0.557432   0.012976  -0.000958  -0.856798
     4  C   -0.930177   0.003231   0.953245   0.096998   0.006064  -0.229343
     5  H    0.001855   0.000000   0.012306  -0.000004  -0.000001  -0.008892
     6  C    0.778163   0.054970  -1.248018  -0.085728  -0.015280  -0.073703
     7  H    0.000358  -0.000008   0.000473   0.000014  -0.000004  -0.007316
     8  C    0.390425  -0.004727  -4.873312  -0.118785   0.057457   0.393305
     9  H    0.006838  -0.000003   0.028022   0.002584  -0.000008   0.004498
    10  C   -0.903252  -0.048269   1.662224   0.003213   0.012185  -0.345371
    11  C    0.294209   0.351196  -0.281666   0.002539   0.007188  -0.026255
    12  H   -0.004333  -0.007191  -0.000391   0.000039  -0.000096  -0.002033
    13  C    6.237156   0.022027   0.105231   0.038476   0.366963   0.006059
    14  H    0.022027   0.486117  -0.002707  -0.000103  -0.006172   0.000242
    15  C    0.105231  -0.002707   9.196989   0.417960  -0.058218  -0.268086
    16  H    0.038476  -0.000103   0.417960   0.481064  -0.006979  -0.000815
    17  H    0.366963  -0.006172  -0.058218  -0.006979   0.483133   0.000111
    18  C    0.006059   0.000242  -0.268086  -0.000815   0.000111   8.885622
    19  H    0.000350   0.000000  -0.006171  -0.000000   0.000000   0.045202
    20  H    0.000316  -0.000000  -0.002301   0.000000  -0.000000   0.496809
    21  H    0.000074   0.000000  -0.000991  -0.000000  -0.000000   0.455735
    22  O    0.000139  -0.000000   0.001013   0.000000  -0.000000  -0.249437
    23  O   -0.000385  -0.000000   0.005610  -0.000000  -0.000000   0.174621
    24  H    0.000108   0.000000  -0.000711   0.000000  -0.000000   0.031561
              19         20         21         22         23         24
     1  C   -0.005880  -0.223260  -0.143413   0.164900  -0.077535  -0.047899
     2  C    0.039165   0.111362   0.043624  -0.000134  -0.100423   0.016353
     3  C   -0.036905  -0.046167   0.000349  -0.018521   0.079059  -0.006219
     4  C    0.002399   0.010401   0.014175   0.005449  -0.027806   0.000386
     5  H   -0.002519   0.000057   0.000209   0.000188  -0.000059  -0.000014
     6  C   -0.004434   0.018358   0.008068  -0.003368   0.026064   0.001469
     7  H    0.000542   0.000334   0.000326  -0.000201  -0.001623  -0.000052
     8  C    0.005487  -0.000651  -0.002097  -0.000879   0.015369   0.002879
     9  H    0.000037   0.000009  -0.000011   0.000003  -0.000005   0.000000
    10  C   -0.003269  -0.000306   0.002504   0.009987  -0.006618  -0.004049
    11  C    0.000777   0.000736   0.000381   0.000750  -0.002210  -0.000225
    12  H    0.000005   0.000010  -0.000000  -0.000002  -0.000026   0.000002
    13  C    0.000350   0.000316   0.000074   0.000139  -0.000385   0.000108
    14  H    0.000000  -0.000000   0.000000  -0.000000  -0.000000   0.000000
    15  C   -0.006171  -0.002301  -0.000991   0.001013   0.005610  -0.000711
    16  H   -0.000000   0.000000  -0.000000   0.000000  -0.000000   0.000000
    17  H    0.000000  -0.000000  -0.000000  -0.000000  -0.000000  -0.000000
    18  C    0.045202   0.496809   0.455735  -0.249437   0.174621   0.031561
    19  H    0.521810   0.008171  -0.039332  -0.022785  -0.099234   0.017548
    20  H    0.008171   0.473636  -0.013245  -0.004436  -0.006266   0.001844
    21  H   -0.039332  -0.013245   0.470491   0.016315   0.003262  -0.000363
    22  O   -0.022785  -0.004436   0.016315   8.366949   0.141808  -0.061619
    23  O   -0.099234  -0.006266   0.003262   0.141808   7.846769   0.215134
    24  H    0.017548   0.001844  -0.000363  -0.061619   0.215134   0.580566
          Atomic-Atomic Spin Densities.
               1          2          3          4          5          6
     1  C   -0.050373  -0.031099  -0.019742   0.012849  -0.002230  -0.081272
     2  C   -0.031099   0.482501  -0.189698   0.135419  -0.001888  -0.011927
     3  C   -0.019742  -0.189698   0.500559  -0.361038   0.000725  -0.015900
     4  C    0.012849   0.135419  -0.361038   0.176127   0.001015   0.005529
     5  H   -0.002230  -0.001888   0.000725   0.001015  -0.002885  -0.001288
     6  C   -0.081272  -0.011927  -0.015900   0.005529  -0.001288  -0.018453
     7  H   -0.005580   0.000511  -0.001227   0.000189   0.000003   0.004469
     8  C   -0.065331  -0.023448   0.010872   0.049132   0.001938   0.038712
     9  H   -0.000400   0.000382   0.000945   0.002736  -0.000022   0.002139
    10  C    0.005644   0.032073  -0.038289   0.010910  -0.000132   0.003511
    11  C   -0.013785  -0.018124  -0.027766   0.011386  -0.000034   0.033840
    12  H    0.000527   0.001040  -0.000068  -0.000005   0.000000   0.000386
    13  C   -0.010510  -0.007686  -0.013680   0.022376   0.000043   0.011459
    14  H   -0.000041  -0.000219   0.000028  -0.000069   0.000000  -0.000239
    15  C    0.035602  -0.009367   0.077252  -0.073609   0.000327  -0.024821
    16  H    0.000042   0.000097  -0.000424  -0.002523   0.000000   0.002038
    17  H   -0.000026  -0.000033   0.000001   0.001045   0.000000  -0.001842
    18  C    0.036162  -0.205357   0.196342  -0.075104   0.001929  -0.030231
    19  H   -0.014693  -0.029018   0.009276  -0.015544  -0.000168   0.001607
    20  H    0.003465   0.025716  -0.003867   0.006355  -0.000048   0.002604
    21  H    0.008812   0.023426  -0.012924   0.012016  -0.000080   0.001562
    22  O   -0.010434   0.105244  -0.042715   0.034098  -0.000070   0.006882
    23  O    0.009421  -0.049038   0.018841  -0.011795   0.000050  -0.002862
    24  H   -0.000759   0.004769  -0.000915   0.000688  -0.000002   0.000336
               7          8          9         10         11         12
     1  C   -0.005580  -0.065331  -0.000400   0.005644  -0.013785   0.000527
     2  C    0.000511  -0.023448   0.000382   0.032073  -0.018124   0.001040
     3  C   -0.001227   0.010872   0.000945  -0.038289  -0.027766  -0.000068
     4  C    0.000189   0.049132   0.002736   0.010910   0.011386  -0.000005
     5  H    0.000003   0.001938  -0.000022  -0.000132  -0.000034   0.000000
     6  C    0.004469   0.038712   0.002139   0.003511   0.033840   0.000386
     7  H   -0.010674  -0.001340  -0.000000   0.001564   0.000893   0.000030
     8  C   -0.001340   0.025681  -0.004587   0.009381   0.033170  -0.001616
     9  H   -0.000000  -0.004587   0.003059   0.000302   0.000201   0.000000
    10  C    0.001564   0.009381   0.000302   0.114077  -0.044414  -0.000511
    11  C    0.000893   0.033170   0.000201  -0.044414   0.004431  -0.000065
    12  H    0.000030  -0.001616   0.000000  -0.000511  -0.000065  -0.002691
    13  C    0.000010  -0.005459  -0.000643  -0.033418   0.032516   0.000117
    14  H   -0.000001   0.000330  -0.000000  -0.000020  -0.000121  -0.000018
    15  C   -0.000316  -0.002714  -0.001083   0.006277  -0.042351   0.000065
    16  H   -0.000000  -0.000469   0.000005  -0.000238  -0.000140  -0.000000
    17  H    0.000000   0.001222   0.000000   0.000090   0.000817   0.000002
    18  C    0.000833   0.029300  -0.000270  -0.003415  -0.004846  -0.000036
    19  H   -0.000350   0.003265   0.000001  -0.003165  -0.000369  -0.000001
    20  H    0.000131  -0.001531  -0.000000   0.002932   0.000369  -0.000001
    21  H   -0.000046  -0.001195   0.000001   0.000939   0.000094   0.000000
    22  O   -0.000008  -0.011539   0.000002   0.005952   0.001045   0.000002
    23  O    0.000250   0.006292  -0.000000  -0.003957  -0.000998  -0.000001
    24  H   -0.000001  -0.000480  -0.000000   0.000379   0.000078  -0.000000
              13         14         15         16         17         18
     1  C   -0.010510  -0.000041   0.035602   0.000042  -0.000026   0.036162
     2  C   -0.007686  -0.000219  -0.009367   0.000097  -0.000033  -0.205357
     3  C   -0.013680   0.000028   0.077252  -0.000424   0.000001   0.196342
     4  C    0.022376  -0.000069  -0.073609  -0.002523   0.001045  -0.075104
     5  H    0.000043   0.000000   0.000327   0.000000   0.000000   0.001929
     6  C    0.011459  -0.000239  -0.024821   0.002038  -0.001842  -0.030231
     7  H    0.000010  -0.000001  -0.000316  -0.000000   0.000000   0.000833
     8  C   -0.005459   0.000330  -0.002714  -0.000469   0.001222   0.029300
     9  H   -0.000643  -0.000000  -0.001083   0.000005   0.000000  -0.000270
    10  C   -0.033418  -0.000020   0.006277  -0.000238   0.000090  -0.003415
    11  C    0.032516  -0.000121  -0.042351  -0.000140   0.000817  -0.004846
    12  H    0.000117  -0.000018   0.000065  -0.000000   0.000002  -0.000036
    13  C    0.092763  -0.000211  -0.016233   0.000785  -0.000698  -0.002321
    14  H   -0.000211   0.002091   0.000235  -0.000001  -0.000008  -0.000003
    15  C   -0.016233   0.000235  -0.026287   0.000527  -0.000455   0.024951
    16  H    0.000785  -0.000001   0.000527   0.002083   0.000008   0.000004
    17  H   -0.000698  -0.000008  -0.000455   0.000008  -0.004812   0.000000
    18  C   -0.002321  -0.000003   0.024951   0.000004   0.000000   0.862385
    19  H   -0.000088  -0.000000   0.000042  -0.000000   0.000000   0.137612
    20  H    0.000044  -0.000000  -0.000061  -0.000000   0.000000  -0.055250
    21  H    0.000040  -0.000000  -0.000087  -0.000000   0.000000  -0.053128
    22  O    0.000202  -0.000000  -0.001504  -0.000000   0.000000  -0.315631
    23  O   -0.000153   0.000000   0.001121   0.000000  -0.000000   0.075009
    24  H    0.000004  -0.000000  -0.000048  -0.000000   0.000000  -0.007691
              19         20         21         22         23         24
     1  C   -0.014693   0.003465   0.008812  -0.010434   0.009421  -0.000759
     2  C   -0.029018   0.025716   0.023426   0.105244  -0.049038   0.004769
     3  C    0.009276  -0.003867  -0.012924  -0.042715   0.018841  -0.000915
     4  C   -0.015544   0.006355   0.012016   0.034098  -0.011795   0.000688
     5  H   -0.000168  -0.000048  -0.000080  -0.000070   0.000050  -0.000002
     6  C    0.001607   0.002604   0.001562   0.006882  -0.002862   0.000336
     7  H   -0.000350   0.000131  -0.000046  -0.000008   0.000250  -0.000001
     8  C    0.003265  -0.001531  -0.001195  -0.011539   0.006292  -0.000480
     9  H    0.000001  -0.000000   0.000001   0.000002  -0.000000  -0.000000
    10  C   -0.003165   0.002932   0.000939   0.005952  -0.003957   0.000379
    11  C   -0.000369   0.000369   0.000094   0.001045  -0.000998   0.000078
    12  H   -0.000001  -0.000001   0.000000   0.000002  -0.000001  -0.000000
    13  C   -0.000088   0.000044   0.000040   0.000202  -0.000153   0.000004
    14  H   -0.000000  -0.000000  -0.000000  -0.000000   0.000000  -0.000000
    15  C    0.000042  -0.000061  -0.000087  -0.001504   0.001121  -0.000048
    16  H   -0.000000  -0.000000  -0.000000  -0.000000   0.000000  -0.000000
    17  H    0.000000   0.000000   0.000000   0.000000  -0.000000   0.000000
    18  C    0.137612  -0.055250  -0.053128  -0.315631   0.075009  -0.007691
    19  H   -0.098044  -0.001096   0.000519   0.004803   0.019359  -0.001444
    20  H   -0.001096  -0.025768   0.006367   0.015553  -0.005067   0.000282
    21  H    0.000519   0.006367  -0.021175   0.014084  -0.003112   0.000164
    22  O    0.004803   0.015553   0.014084   0.540108  -0.077423   0.007586
    23  O    0.019359  -0.005067  -0.003112  -0.077423   0.061007  -0.003387
    24  H   -0.001444   0.000282   0.000164   0.007586  -0.003387   0.000059
 Mulliken charges and spin densities:
               1          2
     1  C    0.320766  -0.193751
     2  C    0.024531   0.234276
     3  C   -0.508231   0.086586
     4  C   -0.179295  -0.057819
     5  H    0.158061  -0.002815
     6  C    0.255462  -0.073760
     7  H    0.155482  -0.010660
     8  C    0.394254   0.089587
     9  H    0.157159   0.002767
    10  C   -0.224753   0.066476
    11  C   -0.404650  -0.034172
    12  H    0.155596  -0.002845
    13  C   -0.343278   0.069261
    14  H    0.147961   0.001734
    15  C   -0.235281  -0.052537
    16  H    0.156443   0.001796
    17  H    0.150657  -0.004689
    18  C   -0.840123   0.611244
    19  H    0.579036   0.012506
    20  H    0.174589  -0.028872
    21  H    0.183938  -0.023725
    22  O   -0.346120   0.276237
    23  O   -0.185505   0.033557
    24  H    0.253303  -0.000382
 Sum of Mulliken charges =  -0.00000   1.00000
 Mulliken charges and spin densities with hydrogens summed into heavy atoms:
               1          2
     1  C    0.320766  -0.193751
     2  C    0.180013   0.223616
     3  C   -0.350171   0.083771
     4  C   -0.022136  -0.055052
     6  C    0.255462  -0.073760
     8  C    0.394254   0.089587
    10  C   -0.069157   0.063632
    11  C   -0.256689  -0.032438
    13  C   -0.192621   0.064572
    15  C   -0.078838  -0.050741
    18  C   -0.481597   0.558647
    22  O    0.232916   0.288743
    23  O    0.067798   0.033175
 Electronic spatial extent (au):  <R**2>=           2788.5103
 Charge=             -0.0000 electrons
 Dipole moment (field-independent basis, Debye):
    X=             -0.3330    Y=             -0.9848    Z=              1.4198  Tot=              1.7597
 Quadrupole moment (field-independent basis, Debye-Ang):
   XX=            -70.7459   YY=            -65.6345   ZZ=            -82.1382
   XY=             -4.2110   XZ=              7.6343   YZ=             -2.5985
 Traceless Quadrupole moment (field-independent basis, Debye-Ang):
   XX=              2.0936   YY=              7.2050   ZZ=             -9.2986
   XY=             -4.2110   XZ=              7.6343   YZ=             -2.5985
 Octapole moment (field-independent basis, Debye-Ang**2):
  XXX=              6.7691  YYY=            -15.1071  ZZZ=             -6.5989  XYY=             24.8190
  XXY=            -27.0358  XXZ=              3.8926  XZZ=             13.2669  YZZ=             -3.9255
  YYZ=             -6.1850  XYZ=              9.5867
 Hexadecapole moment (field-independent basis, Debye-Ang**3):
 XXXX=          -2608.4271 YYYY=           -612.4011 ZZZZ=           -313.8027 XXXY=            -91.9611
 XXXZ=             65.6968 YYYX=            -55.0010 YYYZ=             -5.2857 ZZZX=            -18.3543
 ZZZY=              3.2421 XXYY=           -456.7619 XXZZ=           -529.0693 YYZZ=           -163.9301
 XXYZ=             14.8954 YYXZ=            -15.8638 ZZXY=            -17.6027
 N-N= 7.361398813256D+02 E-N=-2.815431760205D+03  KE= 5.743572632813D+02
                          Isotropic Fermi Contact Couplings
        Atom                 a.u.       MegaHertz       Gauss      10(-4) cm-1
     1  C(13)             -0.02826     -31.77217     -11.33710     -10.59806
     2  C(13)              0.02239      25.16877       8.98084       8.39540
     3  C(13)              0.00919      10.33340       3.68721       3.44685
     4  C(13)             -0.00885      -9.95234      -3.55124      -3.31974
     5  H(1)              -0.00096      -4.30223      -1.53514      -1.43507
     6  C(13)             -0.01262     -14.18397      -5.06119      -4.73126
     7  H(1)              -0.00285     -12.75509      -4.55133      -4.25464
     8  C(13)              0.00994      11.17609       3.98791       3.72794
     9  H(1)               0.00063       2.79854       0.99859       0.93349
    10  C(13)              0.00628       7.05771       2.51837       2.35420
    11  C(13)             -0.00572      -6.42976      -2.29430      -2.14474
    12  H(1)              -0.00074      -3.32643      -1.18695      -1.10958
    13  C(13)              0.00732       8.22787       2.93591       2.74452
    14  H(1)               0.00032       1.44327       0.51500       0.48142
    15  C(13)             -0.00705      -7.92862      -2.82913      -2.64470
    16  H(1)               0.00041       1.84086       0.65687       0.61405
    17  H(1)              -0.00090      -4.01441      -1.43244      -1.33906
    18  C(13)              0.20133     226.33323      80.76132      75.49664
    19  H(1)              -0.02245    -100.34931     -35.80713     -33.47293
    20  H(1)              -0.00731     -32.68731     -11.66364     -10.90331
    21  H(1)              -0.00810     -36.20141     -12.91756     -12.07549
    22  O(17)              0.19657    -119.16131     -42.51972     -39.74794
    23  O(17)              0.00693      -4.20022      -1.49874      -1.40104
    24  H(1)              -0.00037      -1.66283      -0.59334      -0.55466
 --------------------------------------------------------
       Center         ----  Spin Dipole Couplings  ----
                      3XX-RR        3YY-RR        3ZZ-RR
 --------------------------------------------------------
     1   Atom        0.056679      0.023227     -0.079906
     2   Atom       -0.078476     -0.071494      0.149969
     3   Atom       -0.023811     -0.022792      0.046603
     4   Atom        0.021178      0.016679     -0.037857
     5   Atom       -0.001422      0.005359     -0.003937
     6   Atom        0.020073      0.009779     -0.029852
     7   Atom       -0.005815      0.009434     -0.003619
     8   Atom       -0.027345     -0.028624      0.055968
     9   Atom        0.002623     -0.001077     -0.001546
    10   Atom       -0.017546     -0.019457      0.037004
    11   Atom        0.011890      0.008676     -0.020567
    12   Atom       -0.001000      0.002330     -0.001329
    13   Atom       -0.022735     -0.024818      0.047553
    14   Atom        0.000987     -0.000268     -0.000720
    15   Atom        0.014835      0.010452     -0.025286
    16   Atom        0.002126     -0.001112     -0.001015
    17   Atom        0.004517     -0.004253     -0.000263
    18   Atom       -0.152391     -0.303570      0.455962
    19   Atom       -0.040257     -0.151763      0.192019
    20   Atom       -0.033015      0.019063      0.013952
    21   Atom       -0.015119      0.021402     -0.006283
    22   Atom        0.073388     -0.827212      0.753825
    23   Atom       -0.081030     -0.110353      0.191384
    24   Atom       -0.009484      0.013732     -0.004248
 --------------------------------------------------------
                        XY            XZ            YZ
 --------------------------------------------------------
     1   Atom        0.006093      0.028682     -0.032392
     2   Atom       -0.017589     -0.057046      0.082019
     3   Atom       -0.009029     -0.019274      0.022130
     4   Atom        0.003569      0.016840     -0.018710
     5   Atom       -0.000871     -0.000555     -0.001476
     6   Atom        0.003543      0.013298     -0.013443
     7   Atom       -0.002957     -0.000878     -0.005558
     8   Atom       -0.008921     -0.024039      0.027973
     9   Atom        0.000585      0.000619      0.000262
    10   Atom       -0.004483     -0.017760      0.017642
    11   Atom        0.002135      0.009441     -0.010162
    12   Atom        0.000014     -0.000075     -0.001446
    13   Atom       -0.007343     -0.020824      0.024620
    14   Atom       -0.000835      0.000706     -0.000479
    15   Atom        0.003771      0.011520     -0.012047
    16   Atom        0.000535      0.000566      0.000196
    17   Atom       -0.001385      0.001693      0.000789
    18   Atom       -0.101313     -0.415438      0.204319
    19   Atom       -0.057746     -0.228070      0.097722
    20   Atom       -0.018794     -0.003635     -0.032937
    21   Atom        0.034624     -0.002433      0.028963
    22   Atom        0.001612     -1.192810      0.008292
    23   Atom       -0.069538     -0.125534      0.063049
    24   Atom       -0.005983     -0.000621      0.004584
 --------------------------------------------------------


 ---------------------------------------------------------------------------------
              Anisotropic Spin Dipole Couplings in Principal Axis System
 ---------------------------------------------------------------------------------

       Atom             a.u.   MegaHertz   Gauss  10(-4) cm-1        Axes

              Baa    -0.0949   -12.732    -4.543    -4.247 -0.1895  0.2688  0.9444
     1 C(13)  Bbb     0.0324     4.350     1.552     1.451  0.0664  0.9631 -0.2608
              Bcc     0.0625     8.382     2.991     2.796  0.9796 -0.0133  0.2004
 
              Baa    -0.0987   -13.251    -4.728    -4.420 -0.1576  0.9265 -0.3417
     2 C(13)  Bbb    -0.0915   -12.284    -4.383    -4.098  0.9634  0.2202  0.1528
              Bcc     0.1903    25.535     9.112     8.518 -0.2168  0.3051  0.9273
 
              Baa    -0.0324    -4.347    -1.551    -1.450  0.6830  0.7294 -0.0377
     3 C(13)  Bbb    -0.0261    -3.496    -1.248    -1.166  0.6870 -0.6241  0.3723
              Bcc     0.0584     7.843     2.799     2.616 -0.2481  0.2802  0.9273
 
              Baa    -0.0479    -6.430    -2.294    -2.145 -0.2409  0.2823  0.9286
     4 C(13)  Bbb     0.0218     2.930     1.045     0.977  0.3788  0.9082 -0.1778
              Bcc     0.0261     3.500     1.249     1.167  0.8936 -0.3089  0.3257
 
              Baa    -0.0043    -2.310    -0.824    -0.770  0.2331  0.1669  0.9580
     5 H(1)   Bbb    -0.0013    -0.717    -0.256    -0.239  0.9663  0.0710 -0.2474
              Bcc     0.0057     3.027     1.080     1.010 -0.1094  0.9834 -0.1448
 
              Baa    -0.0373    -5.003    -1.785    -1.669 -0.2332  0.2833  0.9302
     6 C(13)  Bbb     0.0139     1.863     0.665     0.621  0.0510  0.9589 -0.2792
              Bcc     0.0234     3.140     1.120     1.047  0.9711  0.0177  0.2381
 
              Baa    -0.0078    -4.140    -1.477    -1.381  0.7468  0.3174  0.5844
     7 H(1)   Bbb    -0.0041    -2.172    -0.775    -0.725 -0.6501  0.1631  0.7421
              Bcc     0.0118     6.312     2.252     2.105 -0.1402  0.9342 -0.3281
 
              Baa    -0.0377    -5.059    -1.805    -1.688  0.3781  0.9092 -0.1745
     8 C(13)  Bbb    -0.0333    -4.474    -1.596    -1.492  0.8909 -0.3061  0.3357
              Bcc     0.0710     9.533     3.402     3.180 -0.2518  0.2824  0.9257
 
              Baa    -0.0017    -0.904    -0.322    -0.301 -0.0932 -0.3128  0.9452
     9 H(1)   Bbb    -0.0011    -0.596    -0.213    -0.199 -0.1946  0.9368  0.2908
              Bcc     0.0028     1.500     0.535     0.500  0.9765  0.1568  0.1482
 
              Baa    -0.0247    -3.312    -1.182    -1.105 -0.2670  0.9035 -0.3353
    10 C(13)  Bbb    -0.0226    -3.027    -1.080    -1.010  0.9245  0.3384  0.1755
              Bcc     0.0472     6.339     2.262     2.114 -0.2720  0.2631  0.9256
 
              Baa    -0.0262    -3.515    -1.254    -1.173 -0.2457  0.2850  0.9265
    11 C(13)  Bbb     0.0116     1.563     0.558     0.521  0.2632  0.9395 -0.2192
              Bcc     0.0146     1.953     0.697     0.651  0.9329 -0.1900  0.3058
 
              Baa    -0.0018    -0.980    -0.350    -0.327  0.0792  0.3266  0.9418
    12 H(1)   Bbb    -0.0010    -0.531    -0.189    -0.177  0.9968 -0.0355 -0.0716
              Bcc     0.0028     1.511     0.539     0.504  0.0100  0.9445 -0.3284
 
              Baa    -0.0326    -4.372    -1.560    -1.458  0.2023  0.9497 -0.2392
    13 C(13)  Bbb    -0.0284    -3.807    -1.358    -1.270  0.9455 -0.1259  0.3002
              Bcc     0.0610     8.179     2.919     2.728 -0.2549  0.2869  0.9234
 
              Baa    -0.0010    -0.558    -0.199    -0.186 -0.1536  0.3925  0.9068
    14 H(1)   Bbb    -0.0007    -0.349    -0.125    -0.116  0.5248  0.8100 -0.2617
              Bcc     0.0017     0.907     0.324     0.303  0.8373 -0.4357  0.3304
 
              Baa    -0.0321    -4.307    -1.537    -1.437 -0.2500  0.2842  0.9256
    15 C(13)  Bbb     0.0141     1.895     0.676     0.632 -0.0581  0.9498 -0.3073
              Bcc     0.0180     2.413     0.861     0.805  0.9665  0.1306  0.2210
 
              Baa    -0.0013    -0.676    -0.241    -0.226 -0.0379  0.8294 -0.5574
    16 H(1)   Bbb    -0.0010    -0.560    -0.200    -0.187 -0.2349  0.5348  0.8117
              Bcc     0.0023     1.236     0.441     0.412  0.9713  0.1617  0.1745
 
              Baa    -0.0047    -2.520    -0.899    -0.841  0.1867  0.9528 -0.2394
    17 H(1)   Bbb    -0.0005    -0.245    -0.088    -0.082 -0.2384  0.2804  0.9298
              Bcc     0.0052     2.765     0.987     0.922  0.9531 -0.1165  0.2795
 
              Baa    -0.3636   -48.786   -17.408   -16.273  0.8492 -0.2124  0.4834
    18 C(13)  Bbb    -0.3540   -47.510   -16.953   -15.848  0.2903  0.9526 -0.0914
              Bcc     0.7176    96.296    34.361    32.121 -0.4411  0.2180  0.8706
 
              Baa    -0.1809   -96.518   -34.440   -32.195  0.7239 -0.4146  0.5514
    19 H(1)   Bbb    -0.1762   -94.030   -33.552   -31.365  0.4652  0.8836  0.0536
              Bcc     0.3571   190.548    67.992    63.560 -0.5094  0.2177  0.8325
 
              Baa    -0.0433   -23.100    -8.243    -7.705  0.8615  0.4145  0.2932
    20 H(1)   Bbb    -0.0078    -4.183    -1.492    -1.395 -0.4883  0.5184  0.7020
              Bcc     0.0511    27.283     9.735     9.100 -0.1390  0.7480 -0.6490
 
[...]
 Optimization stopped.
    -- Wrong number of Negative eigenvalues: Desired=  1 Actual=  0
    -- Flag reset to prevent archiving.
                           ----------------------------
                           ! Non-Optimized Parameters !
                           ! (Angstroms and Degrees)  !
 --------------------------                            --------------------------
 ! Name  Definition              Value          Derivative Info.                !
 --------------------------------------------------------------------------------
 ! R1    R(1,2)                  1.3798         -DE/DX =    0.0002              !
 ! R2    R(1,3)                  1.4263         -DE/DX =    0.0                 !
 ! R3    R(1,18)                 1.451          -DE/DX =   -0.0002              !
 ! R4    R(2,6)                  1.4118         -DE/DX =    0.0                 !
 ! R5    R(2,7)                  1.0839         -DE/DX =    0.0                 !
 ! R6    R(3,4)                  1.3599         -DE/DX =   -0.0001              !
 ! R7    R(3,5)                  1.0823         -DE/DX =    0.0                 !
 ! R8    R(4,8)                  1.4202         -DE/DX =    0.0001              !
 ! R9    R(4,9)                  1.0828         -DE/DX =    0.0                 !
 ! R10   R(6,8)                  1.4188         -DE/DX =    0.0                 !
 ! R11   R(6,10)                 1.4172         -DE/DX =    0.0                 !
 ! R12   R(8,15)                 1.413          -DE/DX =   -0.0001              !
 ! R13   R(10,11)                1.3663         -DE/DX =    0.0                 !
 ! R14   R(10,12)                1.0827         -DE/DX =    0.0                 !
 ! R15   R(11,13)                1.4123         -DE/DX =    0.0                 !
 ! R16   R(11,14)                1.081          -DE/DX =    0.0                 !
 ! R17   R(13,15)                1.3681         -DE/DX =    0.0                 !
 ! R18   R(13,17)                1.0809         -DE/DX =    0.0                 !
 ! R19   R(15,16)                1.0828         -DE/DX =    0.0                 !
 ! R20   R(18,19)                1.2403         -DE/DX =    0.1478              !
 ! R21   R(18,20)                1.0859         -DE/DX =    0.0                 !
 ! R22   R(18,21)                1.0865         -DE/DX =    0.0001              !
 ! R23   R(19,22)                1.0685         -DE/DX =    0.1417              !
 ! R24   R(22,23)                1.3955         -DE/DX =    0.0001              !
 ! R25   R(23,24)                0.9643         -DE/DX =    0.0002              !
 ! A1    A(2,1,3)              118.5651         -DE/DX =    0.0                 !
 ! A2    A(2,1,18)             121.3888         -DE/DX =    0.0001              !
 ! A3    A(3,1,18)             119.9526         -DE/DX =    0.0                 !
 ! A4    A(1,2,6)              121.592          -DE/DX =    0.0                 !
 ! A5    A(1,2,7)              119.6226         -DE/DX =    0.0                 !
 ! A6    A(6,2,7)              118.7844         -DE/DX =    0.0                 !
 ! A7    A(1,3,4)              121.0653         -DE/DX =    0.0                 !
 ! A8    A(1,3,5)              118.7224         -DE/DX =    0.0                 !
 ! A9    A(4,3,5)              120.2123         -DE/DX =    0.0                 !
 ! A10   A(3,4,8)              120.9359         -DE/DX =    0.0                 !
 ! A11   A(3,4,9)              120.4653         -DE/DX =    0.0                 !
 ! A12   A(8,4,9)              118.5985         -DE/DX =    0.0                 !
 ! A13   A(2,6,8)              119.1262         -DE/DX =    0.0                 !
 ! A14   A(2,6,10)             121.9883         -DE/DX =    0.0                 !
 ! A15   A(8,6,10)             118.8855         -DE/DX =    0.0                 !
 ! A16   A(4,8,6)              118.7083         -DE/DX =    0.0                 !
 ! A17   A(4,8,15)             122.1835         -DE/DX =    0.0                 !
 ! A18   A(6,8,15)             119.108          -DE/DX =    0.0                 !
 ! A19   A(6,10,11)            120.732          -DE/DX =    0.0                 !
 ! A20   A(6,10,12)            118.6533         -DE/DX =    0.0                 !
 ! A21   A(11,10,12)           120.6146         -DE/DX =    0.0                 !
 ! A22   A(10,11,13)           120.2986         -DE/DX =    0.0                 !
 ! A23   A(10,11,14)           120.0624         -DE/DX =    0.0                 !
 ! A24   A(13,11,14)           119.639          -DE/DX =    0.0                 !
 ! A25   A(11,13,15)           120.2454         -DE/DX =    0.0                 !
 ! A26   A(11,13,17)           119.6019         -DE/DX =    0.0                 !
 ! A27   A(15,13,17)           120.1519         -DE/DX =    0.0                 !
 ! A28   A(8,15,13)            120.7301         -DE/DX =    0.0                 !
 ! A29   A(8,15,16)            118.7684         -DE/DX =    0.0                 !
 ! A30   A(13,15,16)           120.5008         -DE/DX =    0.0                 !
 ! A31   A(1,18,19)            106.8971         -DE/DX =    0.0                 !
 ! A32   A(1,18,20)            116.093          -DE/DX =    0.0                 !
 ! A33   A(1,18,21)            116.2281         -DE/DX =    0.0                 !
 ! A34   A(19,18,20)           102.4131         -DE/DX =    0.0                 !
 ! A35   A(19,18,21)            98.7813         -DE/DX =    0.0                 !
 ! A36   A(20,18,21)           113.4753         -DE/DX =    0.0                 !
 ! A37   A(19,22,23)           103.5214         -DE/DX =   -0.0001              !
 ! A38   A(22,23,24)           102.8936         -DE/DX =   -0.0002              !
 ! A39   L(18,19,22,9,-1)      181.4557         -DE/DX =   -0.0001              !
 ! A40   L(18,19,22,9,-2)      179.0249         -DE/DX =   -0.0001              !
 ! D1    D(3,1,2,6)             -1.0348         -DE/DX =    0.0                 !
 ! D2    D(3,1,2,7)            179.3236         -DE/DX =    0.0                 !
 ! D3    D(18,1,2,6)          -177.5158         -DE/DX =    0.0                 !
 ! D4    D(18,1,2,7)             2.8426         -DE/DX =    0.0                 !
 ! D5    D(2,1,3,4)              0.863          -DE/DX =    0.0                 !
 ! D6    D(2,1,3,5)           -179.033          -DE/DX =    0.0                 !
 ! D7    D(18,1,3,4)           177.396          -DE/DX =    0.0                 !
 ! D8    D(18,1,3,5)            -2.5            -DE/DX =    0.0                 !
 ! D9    D(2,1,18,19)           94.8608         -DE/DX =    0.0                 !
 ! D10   D(2,1,18,20)          -18.6499         -DE/DX =    0.0                 !
 ! D11   D(2,1,18,21)         -156.0207         -DE/DX =    0.0                 !
 ! D12   D(3,1,18,19)          -81.5721         -DE/DX =    0.0                 !
 ! D13   D(3,1,18,20)          164.9172         -DE/DX =    0.0                 !
 ! D14   D(3,1,18,21)           27.5464         -DE/DX =    0.0                 !
 ! D15   D(1,2,6,8)              0.6298         -DE/DX =    0.0                 !
 ! D16   D(1,2,6,10)          -179.3869         -DE/DX =    0.0                 !
 ! D17   D(7,2,6,8)           -179.7257         -DE/DX =    0.0                 !
 ! D18   D(7,2,6,10)             0.2576         -DE/DX =    0.0                 !
 ! D19   D(1,3,4,8)             -0.2816         -DE/DX =    0.0                 !
 ! D20   D(1,3,4,9)            179.9196         -DE/DX =    0.0                 !
 ! D21   D(5,3,4,8)            179.6128         -DE/DX =    0.0                 !
 ! D22   D(5,3,4,9)             -0.186          -DE/DX =    0.0                 !
 ! D23   D(3,4,8,6)             -0.137          -DE/DX =    0.0                 !
 ! D24   D(3,4,8,15)          -179.9904         -DE/DX =    0.0                 !
 ! D25   D(9,4,8,6)            179.6655         -DE/DX =    0.0                 !
 ! D26   D(9,4,8,15)            -0.1879         -DE/DX =    0.0                 !
 ! D27   D(2,6,8,4)             -0.0262         -DE/DX =    0.0                 !
 ! D28   D(2,6,8,15)           179.8317         -DE/DX =    0.0                 !
 ! D29   D(10,6,8,4)           179.99           -DE/DX =    0.0                 !
 ! D30   D(10,6,8,15)           -0.1521         -DE/DX =    0.0                 !
 ! D31   D(2,6,10,11)         -179.8618         -DE/DX =    0.0                 !
 ! D32   D(2,6,10,12)            0.1796         -DE/DX =    0.0                 !
 ! D33   D(8,6,10,11)            0.1215         -DE/DX =    0.0                 !
 ! D34   D(8,6,10,12)         -179.8371         -DE/DX =    0.0                 !
 ! D35   D(4,8,15,13)          179.887          -DE/DX =    0.0                 !
 ! D36   D(4,8,15,16)            0.2061         -DE/DX =    0.0                 !
 ! D37   D(6,8,15,13)            0.0342         -DE/DX =    0.0                 !
 ! D38   D(6,8,15,16)         -179.6467         -DE/DX =    0.0                 !
 ! D39   D(6,10,11,13)           0.0284         -DE/DX =    0.0                 !
 ! D40   D(6,10,11,14)         179.9707         -DE/DX =    0.0                 !
 ! D41   D(12,10,11,13)        179.9861         -DE/DX =    0.0                 !
 ! D42   D(12,10,11,14)         -0.0716         -DE/DX =    0.0                 !
 ! D43   D(10,11,13,15)         -0.1499         -DE/DX =    0.0                 !
 ! D44   D(10,11,13,17)        179.5364         -DE/DX =    0.0                 !
 ! D45   D(14,11,13,15)        179.9076         -DE/DX =    0.0                 !
 ! D46   D(14,11,13,17)         -0.4062         -DE/DX =    0.0                 !
 ! D47   D(11,13,15,8)           0.117          -DE/DX =    0.0                 !
 ! D48   D(11,13,15,16)        179.7924         -DE/DX =    0.0                 !
 ! D49   D(17,13,15,8)        -179.5675         -DE/DX =    0.0                 !
 ! D50   D(17,13,15,16)          0.1078         -DE/DX =    0.0                 !
 ! D51   D(1,18,22,23)         -44.4756         -DE/DX =    0.0                 !
 ! D52   D(20,18,22,23)         78.1983         -DE/DX =    0.0                 !
 ! D53   D(21,18,22,23)       -165.5142         -DE/DX =    0.0                 !
 ! D54   D(19,22,23,24)       -102.6329         -DE/DX =    0.0                 !
 --------------------------------------------------------------------------------
 GradGradGradGradGradGradGradGradGradGradGradGradGradGradGradGradGradGrad

                          Input orientation:                          
 ---------------------------------------------------------------------
 Center     Atomic      Atomic             Coordinates (Angstroms)
 Number     Number       Type             X           Y           Z
 ---------------------------------------------------------------------
      1          6           0        1.266360    0.424280    0.703880
      2          6           0        0.363800   -0.617380    0.767050
      3          6           0        0.823530    1.680400    0.193750
      4          6           0       -0.463440    1.860630   -0.207190
      5          1           0        1.533520    2.494670    0.128330
      6          6           0       -0.979000   -0.458160    0.361230
      7          1           0        0.684890   -1.582490    1.141560
      8          6           0       -1.405700    0.800460   -0.135660
      9          1           0       -0.789530    2.818830   -0.591780
     10          6           0       -1.916120   -1.518670    0.434460
     11          6           0       -3.209090   -1.336950    0.031970
     12          1           0       -1.587140   -2.476760    0.816760
     13          6           0       -3.631180   -0.084270   -0.465340
     14          1           0       -3.914840   -2.153630    0.092100
     15          6           0       -2.748900    0.958330   -0.545070
     16          1           0       -3.067170    1.919490   -0.928790
     17          1           0       -4.654840    0.044770   -0.787650
     18          6           0        2.658150    0.241610    1.071920
     19          1           0        3.213520    0.027740    0.136450
     20          1           0        2.881050   -0.629930    1.680100
     21          1           0        3.193800    1.134420    1.382270
     22          8           0        3.730120   -0.163170   -0.675570
     23          8           0        3.061110   -1.249740   -1.240360
     24          1           0        3.626420   -1.995460   -1.007920
 ---------------------------------------------------------------------
                    Distance matrix (angstroms):
                    1          2          3          4          5
     1  C    0.000000
     2  C    1.379732   0.000000
     3  C    1.426243   2.412430   0.000000
     4  C    2.425976   2.788190   1.359973   0.000000
     5  H    2.165444   3.385419   1.082313   2.121893   0.000000
     6  C    2.436750   1.411791   2.801893   2.442476   3.884096
     7  H    2.134666   1.083879   3.400591   3.872062   4.286029
     8  C    2.825994   2.440550   2.419147   1.420187   3.402801
     9  H    3.411640   3.870934   2.124863   1.082770   2.453609
    10  C    3.738425   2.474060   4.218729   3.733854   5.301003
    11  C    4.856238   3.718019   5.039107   4.221411   6.097782
    12  H    4.070778   2.695539   4.845766   4.596099   5.909955
    13  C    5.060790   4.214600   4.836621   3.726104   5.803232
    14  H    5.819341   4.595909   6.096086   5.302454   7.161887
    15  C    4.238797   3.727388   3.718803   2.480249   4.599231
    16  H    4.866287   4.591638   4.056452   2.702514   4.755490
    17  H    6.117949   5.295496   5.800946   4.604575   6.718395
    18  C    1.451172   2.468775   2.491411   3.741881   2.689133
    19  H    2.066556   2.989104   2.906307   4.122816   2.984662
    20  H    2.161386   2.677754   3.432237   4.577157   3.739913
    21  H    2.163224   3.384701   2.707186   4.053291   2.485795
    22  O    2.884110   3.690470   3.550033   4.679860   3.540540
    23  O    3.131060   3.421265   3.955901   4.812930   4.269362
    24  H    3.788837   3.961605   4.776207   5.677812   5.082574
                    6          7          8          9         10
     6  C    0.000000
     7  H    2.154429   0.000000
     8  C    1.418836   3.417647   0.000000
     9  H    3.418010   4.954796   2.159057   0.000000
    10  C    1.417123   2.696167   2.442116   4.597421   0.000000
    11  C    2.419501   4.056422   2.801578   4.849107   1.366306
    12  H    2.156870   2.463196   3.417630   5.537458   1.082736
    13  C    2.803047   4.843062   2.417477   4.064351   2.410098
    14  H    3.400913   4.752377   3.882564   5.912750   2.124916
    15  C    2.441387   4.592538   1.413055   2.702364   2.790794
    16  H    3.417283   5.534272   2.154476   2.471848   3.873540
    17  H    3.883898   5.906144   3.398981   4.761764   3.382083
    18  C    3.771421   2.688112   4.276148   4.614809   4.942559
    19  H    4.226565   3.161812   4.691304   4.934056   5.365948
    20  H    4.082758   2.453674   4.870239   5.525264   5.035307
    21  H    4.581604   3.705964   4.855002   4.754054   5.835110
    22  O    4.830920   3.819667   5.253259   5.415402   5.911816
    23  O    4.417486   3.380930   5.037467   5.639268   5.258342
    24  H    5.044577   3.666525   5.822391   6.546081   5.746959
                   11         12         13         14         15
    11  C    0.000000
    12  H    2.132084   0.000000
    13  C    1.412333   3.397924   0.000000
    14  H    1.081048   2.459214   2.161817   0.000000
    15  C    2.411029   3.873514   1.368134   3.383740   0.000000
    16  H    3.398176   4.956253   2.132592   4.283815   1.082758
    17  H    2.161277   4.282876   1.080932   2.480831   2.127450
    18  C    6.164240   5.047487   6.482672   7.064094   5.688984
    19  H    6.566827   5.457259   6.872017   7.454788   6.072966
    20  H    6.348702   4.911299   6.878212   7.143355   6.258617
    21  H    6.994854   6.018123   7.174902   7.937794   6.249906
    22  O    7.073260   5.987738   7.364724   7.937044   6.576663
    23  O    6.398581   5.229106   6.837084   7.159354   6.254216
    24  H    6.945445   5.544575   7.524613   7.622707   7.041577
                   16         17         18         19         20
    16  H    0.000000
    17  H    2.460730   0.000000
    18  C    6.292647   7.548283   0.000000
    19  H    6.645338   7.922458   1.108729   0.000000
    20  H    6.977619   7.958307   1.085886   1.710533   0.000000
    21  H    6.719902   8.215658   1.086438   1.666492   1.816438
    22  O    7.113701   8.388287   2.089662   0.981172   2.547149
    23  O    6.906295   7.836874   2.780852   1.884354   2.990932
    24  H    7.754821   8.531725   3.204335   2.360807   3.105753
                   21         22         23         24
    21  H    0.000000
    22  O    2.491201   0.000000
    23  O    3.546831   1.395420   0.000000
    24  H    3.961858   1.865073   0.964211   0.000000
 Stoichiometry    C11H11O2(2)
 Framework group  C1[X(C11H11O2)]
 Deg. of freedom    66
 Full point group                 C1      NOp   1
 Largest Abelian subgroup         C1      NOp   1
 Largest concise Abelian subgroup C1      NOp   1
                         Standard orientation:                         
 ---------------------------------------------------------------------
 Center     Atomic      Atomic             Coordinates (Angstroms)
 Number     Number       Type             X           Y           Z
 ---------------------------------------------------------------------
      1          6           0        1.266361    0.424278    0.703880
      2          6           0        0.363799   -0.617381    0.767050
      3          6           0        0.823532    1.680398    0.193750
      4          6           0       -0.463437    1.860630   -0.207190
      5          1           0        1.533523    2.494667    0.128330
      6          6           0       -0.979000   -0.458159    0.361230
      7          1           0        0.684888   -1.582491    1.141560
      8          6           0       -1.405699    0.800461   -0.135660
      9          1           0       -0.789526    2.818830   -0.591780
     10          6           0       -1.916122   -1.518668    0.434460
     11          6           0       -3.209092   -1.336946    0.031970
     12          1           0       -1.587143   -2.476758    0.816760
     13          6           0       -3.631180   -0.084266   -0.465340
     14          1           0       -3.914843   -2.153625    0.092100
     15          6           0       -2.748899    0.958333   -0.545070
     16          1           0       -3.067167    1.919493   -0.928790
     17          1           0       -4.654840    0.044776   -0.787650
     18          6           0        2.658151    0.241606    1.071920
     19          1           0        3.213520    0.027735    0.136450
     20          1           0        2.881049   -0.629934    1.680100
     21          1           0        3.193802    1.134415    1.382270
     22          8           0        3.730120   -0.163175   -0.675570
     23          8           0        3.061109   -1.249745   -1.240360
     24          1           0        3.626418   -1.995465   -1.007920
 ---------------------------------------------------------------------
 Rotational constants (GHZ):           1.7121075           0.4532618           0.4037541


 DIATOMIC MOLECULES ARE PECULIAR BECAUSE THEY ONLY HAVE TWO ENDS,
 AND THESE ENDS ARE VERY CLOSE TOGETHER.
 KLAUS RUEDENBERG, REV.MOD.PHYS. PG 176, 32, (1960)
 Error termination request processed by link 9999.
 Error termination via Lnk1e in /shared/centos7/gaussian/g16/l9999.exe at Fri Feb 15 10:21:32 2019.
 Job cpu time:       0 days  1 hours 23 minutes  7.7 seconds.
 Elapsed time:       0 days  0 hours  4 minutes 11.3 seconds.
 File lengths (MBytes):  RWF=    496 Int=      0 D2E=      0 Chk=     48 Scr=     32
