 Entering Gaussian System, Link 0=g16
 Input=../rxn932abs.com
 Output=../rxn932abs.log
 Initial command:
 /shared/centos7/gaussian/g16/l1.exe "/scratch/dinius.ab/QMscratch/Gau-42149.inp" -scrdir="/scratch/dinius.ab/QMscratch/"
 Entering Link 1 = /shared/centos7/gaussian/g16/l1.exe PID=     42150.
  
 Copyright (c) 1988,1990,1992,1993,1995,1998,2003,2009,2016,
            Gaussian, Inc.  All Rights Reserved.
  
 This is part of the Gaussian(R) 16 program.  It is based on
 the Gaussian(R) 09 system (copyright 2009, Gaussian, Inc.),
 the Gaussian(R) 03 system (copyright 2003, Gaussian, Inc.),
 the Gaussian(R) 98 system (copyright 1998, Gaussian, Inc.),
 the Gaussian(R) 94 system (copyright 1995, Gaussian, Inc.),
 the Gaussian 92(TM) system (copyright 1992, Gaussian, Inc.),
 the Gaussian 90(TM) system (copyright 1990, Gaussian, Inc.),
 the Gaussian 88(TM) system (copyright 1988, Gaussian, Inc.),
 the Gaussian 86(TM) system (copyright 1986, Carnegie Mellon
 University), and the Gaussian 82(TM) system (copyright 1983,
 Carnegie Mellon University). Gaussian is a federally registered
 trademark of Gaussian, Inc.
  
 This software contains proprietary and confidential information,
 including trade secrets, belonging to Gaussian, Inc.
  
 This software is provided under written license and may be
 used, copied, transmitted, or stored only in accord with that
 written license.
  
 The following legend is applicable only to US Government
 contracts under FAR:
  
                    RESTRICTED RIGHTS LEGEND
  
 Use, reproduction and disclosure by the US Government is
 subject to restrictions as set forth in subparagraphs (a)
 and (c) of the Commercial Computer Software - Restricted
 Rights clause in FAR 52.227-19.
  
 Gaussian, Inc.
 340 Quinnipiac St., Bldg. 40, Wallingford CT 06492
  
  
 ---------------------------------------------------------------
 Warning -- This program may not be used in any manner that
 competes with the business of Gaussian, Inc. or will provide
 assistance to any competitor of Gaussian, Inc.  The licensee
 of this program is prohibited from giving any competitor of
 Gaussian, Inc. access to this program.  By using this program,
 the user acknowledges that Gaussian, Inc. is engaged in the
 business of creating and licensing software in the field of
 computational chemistry and represents and warrants to the
 licensee that it is not a competitor of Gaussian, Inc. and that
 it will not use this program in any manner prohibited above.
 ---------------------------------------------------------------
  

 Cite this work as:
 Gaussian 16, Revision A.03,
 M. J. Frisch, G. W. Trucks, H. B. Schlegel, G. E. Scuseria, 
 M. A. Robb, J. R. Cheeseman, G. Scalmani, V. Barone, 
 G. A. Petersson, H. Nakatsuji, X. Li, M. Caricato, A. V. Marenich, 
 J. Bloino, B. G. Janesko, R. Gomperts, B. Mennucci, H. P. Hratchian, 
 J. V. Ortiz, A. F. Izmaylov, J. L. Sonnenberg, D. Williams-Young, 
 F. Ding, F. Lipparini, F. Egidi, J. Goings, B. Peng, A. Petrone, 
 T. Henderson, D. Ranasinghe, V. G. Zakrzewski, J. Gao, N. Rega, 
 G. Zheng, W. Liang, M. Hada, M. Ehara, K. Toyota, R. Fukuda, 
 J. Hasegawa, M. Ishida, T. Nakajima, Y. Honda, O. Kitao, H. Nakai, 
 T. Vreven, K. Throssell, J. A. Montgomery, Jr., J. E. Peralta, 
 F. Ogliaro, M. J. Bearpark, J. J. Heyd, E. N. Brothers, K. N. Kudin, 
 V. N. Staroverov, T. A. Keith, R. Kobayashi, J. Normand, 
 K. Raghavachari, A. P. Rendell, J. C. Burant, S. S. Iyengar, 
 J. Tomasi, M. Cossi, J. M. Millam, M. Klene, C. Adamo, R. Cammi, 
 J. W. Ochterski, R. L. Martin, K. Morokuma, O. Farkas, 
 J. B. Foresman, and D. J. Fox, Gaussian, Inc., Wallingford CT, 2016.
 
 ******************************************
 Gaussian 16:  EM64L-G16RevA.03 25-Dec-2016
                15-Oct-2018 
 ******************************************
 --------------------------------
 #n B3LYP/6-31G(d) Opt=(ModRedun)
 --------------------------------
 1/18=120,19=15,26=3,38=1/1,3;
 2/9=110,12=2,17=6,18=5,40=1/2;
 3/5=1,6=6,7=1,11=2,25=1,30=1,71=1,74=-5/1,2,3;
 4//1;
 5/5=2,38=5/2;
 6/7=2,8=2,9=2,10=2,28=1/1;
 7//1,2,3,16;
 1/18=20,19=15,26=3/3(2);
 2/9=110/2;
 99//99;
 2/9=110/2;
 3/5=1,6=6,7=1,11=2,25=1,30=1,71=1,74=-5/1,2,3;
 4/5=5,16=3,69=1/1;
 5/5=2,38=5/2;
 7//1,2,3,16;
 1/18=20,19=15,26=3/3(-5);
 2/9=110/2;
 6/7=2,8=2,9=2,10=2,19=2,28=1/1;
 99/9=1/99;
 -----
 Title
 -----
 Symbolic Z-matrix:
 Charge =  0 Multiplicity = 2
 C                    -4.9682   -0.26299  -0.40173 
 C                    -3.65716   0.15396  -0.15766 
 C                    -5.34028  -1.58132  -0.14703 
 H                    -5.6982    0.44181  -0.79119 
 C                    -2.70395  -0.74431   0.3394 
 H                    -3.38445   1.18545  -0.36923 
 C                    -4.40375  -2.48235   0.35484 
 C                    -3.09378  -2.06472   0.60293 
 H                    -6.36013  -1.90587  -0.33668 
 H                    -4.69285  -3.50996   0.55945 
 H                    -2.38496  -2.77976   1.01365 
 C                    -1.33945  -0.26169   0.62664 
 C                    -0.25021  -0.98627   0.30628 
 H                    -1.2654    0.72755   1.11013 
 C                     1.12489  -0.54982   0.578 
 H                    -0.34088  -1.95999  -0.16895 
 C                     2.02539  -1.45583   1.15177 
 C                     3.34538  -1.07727   1.40886 
 H                     1.70281  -2.46024   1.41564 
 C                     1.57559   0.7319    0.23925 
 C                     3.77914   0.20621   1.08278 
 H                     4.03335  -1.78386   1.8654 
 C                     2.8957    1.10967   0.49549 
 H                     4.80509   0.50229   1.28462 
 H                     0.90391   1.44968  -0.22661 
 H                     3.23129   2.11023   0.23598 
 O                    -1.22381   1.45788   1.76837 
 O                    -1.45255   2.76352   1.15927 
 H                    -2.24311   2.98533   1.68334 
 
 The following ModRedundant input section has been read:
 B      26      27 F                                                           
 

 GradGradGradGradGradGradGradGradGradGradGradGradGradGradGradGradGradGrad
 Berny optimization.
 Initialization pass.
                           ----------------------------
                           !    Initial Parameters    !
                           ! (Angstroms and Degrees)  !
 --------------------------                            --------------------------
 ! Name  Definition              Value          Derivative Info.                !
 --------------------------------------------------------------------------------
 ! R1    R(1,2)                  1.3972         estimate D2E/DX2                !
 ! R2    R(1,3)                  1.3933         estimate D2E/DX2                !
 ! R3    R(1,4)                  1.0869         estimate D2E/DX2                !
 ! R4    R(2,5)                  1.4009         estimate D2E/DX2                !
 ! R5    R(2,6)                  1.0877         estimate D2E/DX2                !
 ! R6    R(3,7)                  1.3931         estimate D2E/DX2                !
 ! R7    R(3,9)                  1.0869         estimate D2E/DX2                !
 ! R8    R(5,8)                  1.4017         estimate D2E/DX2                !
 ! R9    R(5,12)                 1.4756         estimate D2E/DX2                !
 ! R10   R(7,8)                  1.3971         estimate D2E/DX2                !
 ! R11   R(7,10)                 1.0869         estimate D2E/DX2                !
 ! R12   R(8,11)                 1.0874         estimate D2E/DX2                !
 ! R13   R(12,13)                1.3469         estimate D2E/DX2                !
 ! R14   R(12,14)                1.1036         estimate D2E/DX2                !
 ! R15   R(13,15)                1.4681         estimate D2E/DX2                !
 ! R16   R(13,16)                1.0873         estimate D2E/DX2                !
 ! R17   R(14,27)                0.9841         estimate D2E/DX2                !
 ! R18   R(15,17)                1.4003         estimate D2E/DX2                !
 ! R19   R(15,20)                1.4002         estimate D2E/DX2                !
 ! R20   R(17,18)                1.3971         estimate D2E/DX2                !
 ! R21   R(17,19)                1.0874         estimate D2E/DX2                !
 ! R22   R(18,21)                1.3935         estimate D2E/DX2                !
 ! R23   R(18,22)                1.0867         estimate D2E/DX2                !
 ! R24   R(20,23)                1.3968         estimate D2E/DX2                !
 ! R25   R(20,25)                1.0878         estimate D2E/DX2                !
 ! R26   R(21,23)                1.3934         estimate D2E/DX2                !
 ! R27   R(21,24)                1.0867         estimate D2E/DX2                !
 ! R28   R(23,26)                1.0868         estimate D2E/DX2                !
 ! R29   R(26,27)                4.7562         Frozen                          !
 ! R30   R(27,28)                1.4588         estimate D2E/DX2                !
 ! R31   R(28,29)                0.9741         estimate D2E/DX2                !
 ! A1    A(2,1,3)              120.066          estimate D2E/DX2                !
 ! A2    A(2,1,4)              119.9536         estimate D2E/DX2                !
 ! A3    A(3,1,4)              119.9804         estimate D2E/DX2                !
 ! A4    A(1,2,5)              120.6028         estimate D2E/DX2                !
 ! A5    A(1,2,6)              118.9645         estimate D2E/DX2                !
 ! A6    A(5,2,6)              120.4298         estimate D2E/DX2                !
 ! A7    A(1,3,7)              119.8871         estimate D2E/DX2                !
 ! A8    A(1,3,9)              120.0795         estimate D2E/DX2                !
 ! A9    A(7,3,9)              120.0332         estimate D2E/DX2                !
 ! A10   A(2,5,8)              118.7817         estimate D2E/DX2                !
 ! A11   A(2,5,12)             119.2455         estimate D2E/DX2                !
 ! A12   A(8,5,12)             121.9156         estimate D2E/DX2                !
 ! A13   A(3,7,8)              120.0626         estimate D2E/DX2                !
 ! A14   A(3,7,10)             120.0316         estimate D2E/DX2                !
 ! A15   A(8,7,10)             119.9048         estimate D2E/DX2                !
 ! A16   A(5,8,7)              120.5934         estimate D2E/DX2                !
 ! A17   A(5,8,11)             120.6072         estimate D2E/DX2                !
 ! A18   A(7,8,11)             118.7964         estimate D2E/DX2                !
 ! A19   A(5,12,13)            121.7076         estimate D2E/DX2                !
 ! A20   A(5,12,14)            116.1377         estimate D2E/DX2                !
 ! A21   A(13,12,14)           122.153          estimate D2E/DX2                !
 ! A22   A(12,13,15)           123.6103         estimate D2E/DX2                !
 ! A23   A(12,13,16)           121.2182         estimate D2E/DX2                !
 ! A24   A(15,13,16)           115.1665         estimate D2E/DX2                !
 ! A25   A(12,14,27)           163.9799         estimate D2E/DX2                !
 ! A26   A(13,15,17)           119.0664         estimate D2E/DX2                !
 ! A27   A(13,15,20)           121.9273         estimate D2E/DX2                !
 ! A28   A(17,15,20)           118.971          estimate D2E/DX2                !
 ! A29   A(15,17,18)           120.5086         estimate D2E/DX2                !
 ! A30   A(15,17,19)           120.4148         estimate D2E/DX2                !
 ! A31   A(18,17,19)           119.0717         estimate D2E/DX2                !
 ! A32   A(17,18,21)           120.0412         estimate D2E/DX2                !
 ! A33   A(17,18,22)           119.9512         estimate D2E/DX2                !
 ! A34   A(21,18,22)           120.0075         estimate D2E/DX2                !
 ! A35   A(15,20,23)           120.4894         estimate D2E/DX2                !
 ! A36   A(15,20,25)           120.5863         estimate D2E/DX2                !
 ! A37   A(23,20,25)           118.9243         estimate D2E/DX2                !
 ! A38   A(18,21,23)           119.8986         estimate D2E/DX2                !
 ! A39   A(18,21,24)           120.0894         estimate D2E/DX2                !
 ! A40   A(23,21,24)           120.012          estimate D2E/DX2                !
 ! A41   A(20,23,21)           120.0768         estimate D2E/DX2                !
 ! A42   A(20,23,26)           119.8038         estimate D2E/DX2                !
 ! A43   A(21,23,26)           120.1194         estimate D2E/DX2                !
 ! A44   A(14,27,28)           112.2301         estimate D2E/DX2                !
 ! A45   A(27,28,29)            96.1093         estimate D2E/DX2                !
 ! D1    D(3,1,2,5)              0.2106         estimate D2E/DX2                !
 ! D2    D(3,1,2,6)            179.5908         estimate D2E/DX2                !
 ! D3    D(4,1,2,5)           -179.7551         estimate D2E/DX2                !
 ! D4    D(4,1,2,6)             -0.3749         estimate D2E/DX2                !
 ! D5    D(2,1,3,7)              0.1708         estimate D2E/DX2                !
 ! D6    D(2,1,3,9)            179.9912         estimate D2E/DX2                !
 ! D7    D(4,1,3,7)           -179.8635         estimate D2E/DX2                !
 ! D8    D(4,1,3,9)             -0.0431         estimate D2E/DX2                !
 ! D9    D(1,2,5,8)             -0.7772         estimate D2E/DX2                !
 ! D10   D(1,2,5,12)          -178.0789         estimate D2E/DX2                !
 ! D11   D(6,2,5,8)            179.8517         estimate D2E/DX2                !
 ! D12   D(6,2,5,12)             2.55           estimate D2E/DX2                !
 ! D13   D(1,3,7,8)              0.0281         estimate D2E/DX2                !
 ! D14   D(1,3,7,10)           179.6694         estimate D2E/DX2                !
 ! D15   D(9,3,7,8)           -179.7924         estimate D2E/DX2                !
 ! D16   D(9,3,7,10)            -0.1512         estimate D2E/DX2                !
 ! D17   D(2,5,8,7)              0.977          estimate D2E/DX2                !
 ! D18   D(2,5,8,11)          -178.3929         estimate D2E/DX2                !
 ! D19   D(12,5,8,7)           178.2033         estimate D2E/DX2                !
 ! D20   D(12,5,8,11)           -1.1666         estimate D2E/DX2                !
 ! D21   D(2,5,12,13)         -138.278          estimate D2E/DX2                !
 ! D22   D(2,5,12,14)           41.253          estimate D2E/DX2                !
 ! D23   D(8,5,12,13)           44.5081         estimate D2E/DX2                !
 ! D24   D(8,5,12,14)         -135.9609         estimate D2E/DX2                !
 ! D25   D(3,7,8,5)             -0.611          estimate D2E/DX2                !
 ! D26   D(3,7,8,11)           178.7701         estimate D2E/DX2                !
 ! D27   D(10,7,8,5)           179.7472         estimate D2E/DX2                !
 ! D28   D(10,7,8,11)           -0.8716         estimate D2E/DX2                !
 ! D29   D(5,12,13,15)        -179.7074         estimate D2E/DX2                !
 ! D30   D(5,12,13,16)          -0.5637         estimate D2E/DX2                !
 ! D31   D(14,12,13,15)          0.7899         estimate D2E/DX2                !
 ! D32   D(14,12,13,16)        179.9335         estimate D2E/DX2                !
 ! D33   D(5,12,14,27)          87.3651         estimate D2E/DX2                !
 ! D34   D(13,12,14,27)        -93.1061         estimate D2E/DX2                !
 ! D35   D(12,13,15,17)        133.5707         estimate D2E/DX2                !
 ! D36   D(12,13,15,20)        -48.6122         estimate D2E/DX2                !
 ! D37   D(16,13,15,17)        -45.6201         estimate D2E/DX2                !
 ! D38   D(16,13,15,20)        132.197          estimate D2E/DX2                !
 ! D39   D(12,14,27,28)       -163.7211         estimate D2E/DX2                !
 ! D40   D(13,15,17,18)        179.2551         estimate D2E/DX2                !
 ! D41   D(13,15,17,19)         -1.5621         estimate D2E/DX2                !
 ! D42   D(20,15,17,18)          1.3727         estimate D2E/DX2                !
 ! D43   D(20,15,17,19)       -179.4445         estimate D2E/DX2                !
 ! D44   D(13,15,20,23)       -179.1412         estimate D2E/DX2                !
 ! D45   D(13,15,20,25)          0.9136         estimate D2E/DX2                !
 ! D46   D(17,15,20,23)         -1.3221         estimate D2E/DX2                !
 ! D47   D(17,15,20,25)        178.7326         estimate D2E/DX2                !
 ! D48   D(15,17,18,21)         -0.6043         estimate D2E/DX2                !
 ! D49   D(15,17,18,22)        179.2645         estimate D2E/DX2                !
 ! D50   D(19,17,18,21)       -179.7979         estimate D2E/DX2                !
 ! D51   D(19,17,18,22)          0.0708         estimate D2E/DX2                !
 ! D52   D(17,18,21,23)         -0.2353         estimate D2E/DX2                !
 ! D53   D(17,18,21,24)        179.8521         estimate D2E/DX2                !
 ! D54   D(22,18,21,23)        179.896          estimate D2E/DX2                !
 ! D55   D(22,18,21,24)         -0.0166         estimate D2E/DX2                !
 ! D56   D(15,20,23,21)          0.5031         estimate D2E/DX2                !
 ! D57   D(15,20,23,26)       -179.4622         estimate D2E/DX2                !
 ! D58   D(25,20,23,21)       -179.5507         estimate D2E/DX2                !
 ! D59   D(25,20,23,26)          0.484          estimate D2E/DX2                !
 ! D60   D(18,21,23,20)          0.2856         estimate D2E/DX2                !
 ! D61   D(18,21,23,26)       -179.7492         estimate D2E/DX2                !
 ! D62   D(24,21,23,20)       -179.8017         estimate D2E/DX2                !
 ! D63   D(24,21,23,26)          0.1635         estimate D2E/DX2                !
 ! D64   D(14,27,28,29)        119.5769         estimate D2E/DX2                !
 --------------------------------------------------------------------------------
 Trust Radius=3.00D-01 FncErr=1.00D-07 GrdErr=1.00D-06 EigMax=2.50D+02 EigMin=1.00D-04
 Number of steps in this run=    150 maximum allowed number of steps=    174.
 GradGradGradGradGradGradGradGradGradGradGradGradGradGradGradGradGradGrad

                          Input orientation:                          
 ---------------------------------------------------------------------
 Center     Atomic      Atomic             Coordinates (Angstroms)
 Number     Number       Type             X           Y           Z
 ---------------------------------------------------------------------
      1          6           0       -4.968200   -0.262990   -0.401730
      2          6           0       -3.657160    0.153960   -0.157660
      3          6           0       -5.340280   -1.581320   -0.147030
      4          1           0       -5.698200    0.441810   -0.791190
      5          6           0       -2.703950   -0.744310    0.339400
      6          1           0       -3.384450    1.185450   -0.369230
      7          6           0       -4.403750   -2.482350    0.354840
      8          6           0       -3.093780   -2.064720    0.602930
      9          1           0       -6.360130   -1.905870   -0.336680
     10          1           0       -4.692850   -3.509960    0.559450
     11          1           0       -2.384960   -2.779760    1.013650
     12          6           0       -1.339450   -0.261690    0.626640
     13          6           0       -0.250210   -0.986270    0.306280
     14          1           0       -1.265400    0.727550    1.110130
     15          6           0        1.124890   -0.549820    0.578000
     16          1           0       -0.340880   -1.959990   -0.168950
     17          6           0        2.025390   -1.455830    1.151770
     18          6           0        3.345380   -1.077270    1.408860
     19          1           0        1.702810   -2.460240    1.415640
     20          6           0        1.575590    0.731900    0.239250
     21          6           0        3.779140    0.206210    1.082780
     22          1           0        4.033350   -1.783860    1.865400
     23          6           0        2.895700    1.109670    0.495490
     24          1           0        4.805090    0.502290    1.284620
     25          1           0        0.903910    1.449680   -0.226610
     26          1           0        3.231290    2.110230    0.235980
     27          8           0       -1.223810    1.457880    1.768370
     28          8           0       -1.452550    2.763520    1.159270
     29          1           0       -2.243110    2.985330    1.683340
 ---------------------------------------------------------------------
                    Distance matrix (angstroms):
                    1          2          3          4          5
     1  C    0.000000
     2  C    1.397227   0.000000
     3  C    1.393309   2.417479   0.000000
     4  H    1.086886   2.156400   2.153161   0.000000
     5  C    2.430591   1.400916   2.808458   3.413304   0.000000
     6  H    2.146462   1.087706   3.395535   2.466676   2.165458
     7  C    2.411755   2.787505   1.393132   3.397013   2.431119
     8  C    2.787297   2.412143   2.417205   3.874179   1.401748
     9  H    2.154241   3.403086   1.086919   2.481196   3.895376
    10  H    3.397425   3.874430   2.153586   4.295514   3.413644
    11  H    3.874346   3.405462   3.393723   4.961201   2.167816
    12  C    3.771654   2.481868   4.283297   4.637225   1.475564
    13  C    4.825333   3.622523   5.144744   5.737983   2.465863
    14  H    4.120391   2.767095   4.849328   4.831809   2.197686
    15  C    6.178017   4.889223   6.586963   7.029407   3.841194
    16  H    4.934175   3.932763   5.013768   5.903957   2.705623
    17  C    7.262681   6.049579   7.480356   8.187183   4.851068
    18  C    8.547333   7.280486   8.838300   9.430491   6.152154
    19  H    7.254868   6.167544   7.267706   8.250269   4.849973
    20  C    6.649951   5.279510   7.302702   7.352141   4.528100
    21  C    8.884812   7.539229   9.373981   9.663708   6.594434
    22  H    9.406425   8.184856   9.589361  10.330254   6.985739
    23  C    8.033064   6.654319   8.688246   8.715314   5.900651
    24  H    9.947192   8.591343  10.455601  10.706622   7.670276
    25  H    6.119279   4.742046   6.941412   6.702418   4.260354
    26  H    8.559818   7.171659   9.340559   9.141909   6.586818
    27  O    4.657380   3.366154   5.463590   5.253942   3.013704
    28  O    4.894515   3.661204   5.974822   5.217296   3.813536
    29  H    4.724957   3.661349   5.813519   4.952821   3.991085
                    6          7          8          9         10
     6  H    0.000000
     7  C    3.875049   0.000000
     8  C    3.404877   1.397135   0.000000
     9  H    4.290920   2.153590   3.402520   0.000000
    10  H    4.961979   1.086934   2.155837   2.481124   0.000000
    11  H    4.316738   2.144294   1.087382   4.288246   2.462894
    12  C    2.695922   3.794093   2.515781   5.370153   4.669161
    13  C    3.872485   4.415032   3.055642   6.212100   5.115678
    14  H    2.624605   4.552270   3.375944   5.914764   5.477879
    15  C    4.923673   5.860916   4.482490   7.661660   6.527547
    16  H    4.381464   4.129664   2.860983   6.021830   4.676817
    17  C    6.209361   6.559168   5.184388   8.528480   7.050180
    18  C    7.319298   7.945705   6.564096   9.895980   8.441127
    19  H    6.508228   6.198053   4.881005   8.269761   6.537541
    20  C    5.017764   6.789497   5.454939   8.382433   7.575569
    21  C    7.374569   8.643954   7.254268  10.453734   9.265981
    22  H    8.296634   8.599671   7.243528  10.624899   8.990634
    23  C    6.339855   8.136606   6.779540   9.770178   8.884321
    24  H    8.382750   9.724983   8.333450  11.536463  10.336096
    25  H    4.298859   6.631003   5.387084   8.002381   7.519285
    26  H    6.707422   8.910654   7.587580  10.414045   9.720245
    27  O    3.051543   5.256948   4.154967   6.490596   6.178605
    28  O    2.925552   6.072548   5.129820   6.937248   7.086316
    29  H    2.958930   6.027338   5.233921   6.704787   7.032293
                   11         12         13         14         15
    11  H    0.000000
    12  C    2.753824   0.000000
    13  C    2.876480   1.346882   0.000000
    14  H    3.682926   1.103559   2.148014   0.000000
    15  C    4.181085   2.481604   1.468067   2.761942   0.000000
    16  H    2.499766   2.124695   1.087288   3.116674   2.166794
    17  C    4.606849   3.608861   2.472589   3.949453   1.400345
    18  C    5.990948   4.819198   3.761945   4.960434   2.428808
    19  H    4.119897   3.835556   2.686551   4.366419   2.164564
    20  C    5.349524   3.103989   2.508017   2.971477   1.400246
    21  C    6.849593   5.160132   4.273245   5.071482   2.805606
    22  H    6.550725   5.720009   4.627731   5.912222   3.411655
    23  C    6.578870   4.453574   3.784906   4.223571   2.428267
    24  H    7.908356   6.226715   5.359946   6.077173   3.892315
    25  H    5.499370   2.947794   2.747693   2.648443   2.166617
    26  H    7.487258   5.164328   4.659839   4.784994   3.410244
    27  O    4.458191   2.067327   3.009896   0.984069   3.311228
    28  O    5.623037   3.073822   4.029161   2.045144   4.237841
    29  H    5.805589   3.532188   4.652048   2.526273   5.006245
                   16         17         18         19         20
    16  H    0.000000
    17  C    2.756395   0.000000
    18  C    4.105751   1.397060   0.000000
    19  H    2.633979   1.087440   2.147251   0.000000
    20  C    3.329528   2.412711   2.788053   3.404385   0.000000
    21  C    4.820147   2.417183   1.393484   3.395865   2.417339
    22  H    4.827369   2.156102   1.086739   2.468034   3.874790
    23  C    4.509960   2.787460   2.412294   3.874780   1.396803
    24  H    5.886994   3.402736   2.154344   4.291607   3.402233
    25  H    3.630245   3.405824   3.875695   4.315403   1.087836
    26  H    5.430567   3.874229   3.398356   4.961557   2.154332
    27  O    4.026737   4.407630   5.237722   4.903181   3.271375
    28  O    5.031056   5.468001   6.150943   6.108166   3.760791
    29  H    5.612989   6.182763   6.914570   6.730244   4.663241
                   21         22         23         24         25
    21  C    0.000000
    22  H    2.153484   0.000000
    23  C    1.393419   3.397560   0.000000
    24  H    1.086727   2.481808   2.153464   0.000000
    25  H    3.395242   4.962427   2.145755   4.289588   0.000000
    26  H    2.154647   4.296772   1.086778   2.482330   2.463131
    27  O    5.202521   6.177056   4.325718   6.123300   2.916711
    28  O    5.823767   7.160474   4.699266   6.654843   3.033108
    29  H    6.659705   7.884939   5.597897   7.483421   3.988717
                   26         27         28         29
    26  H    0.000000
    27  O    4.756227   0.000000
    28  O    4.818465   1.458774   0.000000
    29  H    5.729721   1.838289   0.974081   0.000000
 Stoichiometry    C14H13O2(2)
 Framework group  C1[X(C14H13O2)]
 Deg. of freedom    81
 Full point group                 C1      NOp   1
 Largest Abelian subgroup         C1      NOp   1
 Largest concise Abelian subgroup C1      NOp   1
                         Standard orientation:                         
 ---------------------------------------------------------------------
 Center     Atomic      Atomic             Coordinates (Angstroms)
 Number     Number       Type             X           Y           Z
 ---------------------------------------------------------------------
      1          6           0       -4.141448    0.555257   -0.555853
      2          6           0       -2.763569    0.776443   -0.486808
      3          6           0       -4.670970   -0.675222   -0.172659
      4          1           0       -4.800618    1.343815   -0.909396
      5          6           0       -1.900964   -0.232068   -0.038048
      6          1           0       -2.368805    1.741422   -0.796780
      7          6           0       -3.824575   -1.683638    0.282899
      8          6           0       -2.447166   -1.461412    0.356002
      9          1           0       -5.742819   -0.847476   -0.226146
     10          1           0       -4.235689   -2.642607    0.587514
     11          1           0       -1.807765   -2.255730    0.733658
     12          6           0       -0.455750    0.047835    0.063443
     13          6           0        0.468490   -0.851540   -0.325137
     14          1           0       -0.179316    1.036873    0.467459
     15          6           0        1.915444   -0.619614   -0.237067
     16          1           0        0.179015   -1.822280   -0.720184
     17          6           0        2.734309   -1.623750    0.294098
     18          6           0        4.116863   -1.441169    0.377675
     19          1           0        2.300822   -2.551666    0.659590
     20          6           0        2.506720    0.558357   -0.709788
     21          6           0        4.693280   -0.258205   -0.080734
     22          1           0        4.742509   -2.221617    0.802491
     23          6           0        3.889174    0.740097   -0.627013
     24          1           0        5.768371   -0.114371   -0.013898
     25          1           0        1.897608    1.346860   -1.146403
     26          1           0        4.335387    1.662425   -0.989356
     27          8           0        0.047887    1.784272    1.065928
     28          8           0       -0.056658    3.077169    0.398465
     29          1           0       -0.737553    3.444592    0.990256
 ---------------------------------------------------------------------
 Rotational constants (GHZ):           1.0900431           0.2611860           0.2204629
 Standard basis: 6-31G(d) (6D, 7F)
 There are   266 symmetry adapted cartesian basis functions of A   symmetry.
 There are   266 symmetry adapted basis functions of A   symmetry.
   266 basis functions,   500 primitive gaussians,   266 cartesian basis functions
    57 alpha electrons       56 beta electrons
       nuclear repulsion energy       971.8239167154 Hartrees.
 NAtoms=   29 NActive=   29 NUniq=   29 SFac= 1.00D+00 NAtFMM=   60 NAOKFM=F Big=F
 Integral buffers will be    131072 words long.
 Raffenetti 2 integral format.
 Two-electron integral symmetry is turned on.
 One-electron integrals computed using PRISM.
 NBasis=   266 RedAO= T EigKep=  4.58D-04  NBF=   266
 NBsUse=   266 1.00D-06 EigRej= -1.00D+00 NBFU=   266
 ExpMin= 1.61D-01 ExpMax= 5.48D+03 ExpMxC= 8.25D+02 IAcc=3 IRadAn=         5 AccDes= 0.00D+00
 Harris functional with IExCor=  402 and IRadAn=       5 diagonalized for initial guess.
 HarFok:  IExCor=  402 AccDes= 0.00D+00 IRadAn=         5 IDoV= 1 UseB2=F ITyADJ=14
 ICtDFT=  3500011 ScaDFX=  1.000000  1.000000  1.000000  1.000000
 FoFCou: FMM=F IPFlag=           0 FMFlag=      100000 FMFlg1=           0
         NFxFlg=           0 DoJE=T BraDBF=F KetDBF=T FulRan=T
         wScrn=  0.000000 ICntrl=       500 IOpCl=  0 I1Cent=   200000004 NGrid=           0
         NMat0=    1 NMatS0=      1 NMatT0=    0 NMatD0=    1 NMtDS0=    0 NMtDT0=    0
 Petite list used in FoFCou.
 Initial guess <Sx>= 0.0000 <Sy>= 0.0000 <Sz>= 0.5000 <S**2>= 0.7500 S= 0.5000
 Requested convergence on RMS density matrix=1.00D-08 within 128 cycles.
 Requested convergence on MAX density matrix=1.00D-06.
 Requested convergence on             energy=1.00D-06.
 No special actions if energy rises.
 Integral accuracy reduced to 1.0D-05 until final iterations.
 Initial convergence to 1.0D-05 achieved.  Increase integral accuracy.
 SCF Done:  E(UB3LYP) =  -691.506335393     A.U. after   22 cycles
            NFock= 22  Conv=0.36D-08     -V/T= 2.0086
 <Sx>= 0.0000 <Sy>= 0.0000 <Sz>= 0.5000 <S**2>= 0.7609 S= 0.5054
 <L.S>= 0.000000000000E+00
 Annihilation of the first spin contaminant:
 S**2 before annihilation     0.7609,   after     0.7501

 **********************************************************************

            Population analysis using the SCF density.

 **********************************************************************

 Orbital symmetries:
 Alpha Orbitals:
       Occupied  (A) (A) (A) (A) (A) (A) (A) (A) (A) (A) (A) (A)
                 (A) (A) (A) (A) (A) (A) (A) (A) (A) (A) (A) (A)
                 (A) (A) (A) (A) (A) (A) (A) (A) (A) (A) (A) (A)
                 (A) (A) (A) (A) (A) (A) (A) (A) (A) (A) (A) (A)
                 (A) (A) (A) (A) (A) (A) (A) (A) (A)
       Virtual   (A) (A) (A) (A) (A) (A) (A) (A) (A) (A) (A) (A)
                 (A) (A) (A) (A) (A) (A) (A) (A) (A) (A) (A) (A)
                 (A) (A) (A) (A) (A) (A) (A) (A) (A) (A) (A) (A)
                 (A) (A) (A) (A) (A) (A) (A) (A) (A) (A) (A) (A)
                 (A) (A) (A) (A) (A) (A) (A) (A) (A) (A) (A) (A)
                 (A) (A) (A) (A) (A) (A) (A) (A) (A) (A) (A) (A)
                 (A) (A) (A) (A) (A) (A) (A) (A) (A) (A) (A) (A)
                 (A) (A) (A) (A) (A) (A) (A) (A) (A) (A) (A) (A)
                 (A) (A) (A) (A) (A) (A) (A) (A) (A) (A) (A) (A)
                 (A) (A) (A) (A) (A) (A) (A) (A) (A) (A) (A) (A)
                 (A) (A) (A) (A) (A) (A) (A) (A) (A) (A) (A) (A)
                 (A) (A) (A) (A) (A) (A) (A) (A) (A) (A) (A) (A)
                 (A) (A) (A) (A) (A) (A) (A) (A) (A) (A) (A) (A)
                 (A) (A) (A) (A) (A) (A) (A) (A) (A) (A) (A) (A)
                 (A) (A) (A) (A) (A) (A) (A) (A) (A) (A) (A) (A)
                 (A) (A) (A) (A) (A) (A) (A) (A) (A) (A) (A) (A)
                 (A) (A) (A) (A) (A) (A) (A) (A) (A) (A) (A) (A)
                 (A) (A) (A) (A) (A)
 Beta  Orbitals:
       Occupied  (A) (A) (A) (A) (A) (A) (A) (A) (A) (A) (A) (A)
                 (A) (A) (A) (A) (A) (A) (A) (A) (A) (A) (A) (A)
                 (A) (A) (A) (A) (A) (A) (A) (A) (A) (A) (A) (A)
                 (A) (A) (A) (A) (A) (A) (A) (A) (A) (A) (A) (A)
                 (A) (A) (A) (A) (A) (A) (A) (A)
       Virtual   (A) (A) (A) (A) (A) (A) (A) (A) (A) (A) (A) (A)
                 (A) (A) (A) (A) (A) (A) (A) (A) (A) (A) (A) (A)
                 (A) (A) (A) (A) (A) (A) (A) (A) (A) (A) (A) (A)
                 (A) (A) (A) (A) (A) (A) (A) (A) (A) (A) (A) (A)
                 (A) (A) (A) (A) (A) (A) (A) (A) (A) (A) (A) (A)
                 (A) (A) (A) (A) (A) (A) (A) (A) (A) (A) (A) (A)
                 (A) (A) (A) (A) (A) (A) (A) (A) (A) (A) (A) (A)
                 (A) (A) (A) (A) (A) (A) (A) (A) (A) (A) (A) (A)
                 (A) (A) (A) (A) (A) (A) (A) (A) (A) (A) (A) (A)
                 (A) (A) (A) (A) (A) (A) (A) (A) (A) (A) (A) (A)
                 (A) (A) (A) (A) (A) (A) (A) (A) (A) (A) (A) (A)
                 (A) (A) (A) (A) (A) (A) (A) (A) (A) (A) (A) (A)
                 (A) (A) (A) (A) (A) (A) (A) (A) (A) (A) (A) (A)
                 (A) (A) (A) (A) (A) (A) (A) (A) (A) (A) (A) (A)
                 (A) (A) (A) (A) (A) (A) (A) (A) (A) (A) (A) (A)
                 (A) (A) (A) (A) (A) (A) (A) (A) (A) (A) (A) (A)
                 (A) (A) (A) (A) (A) (A) (A) (A) (A) (A) (A) (A)
                 (A) (A) (A) (A) (A) (A)
 The electronic state is 2-A.
 Alpha  occ. eigenvalues --  -19.22055 -19.20804 -10.20378 -10.19914 -10.19627
 Alpha  occ. eigenvalues --  -10.19449 -10.19369 -10.19353 -10.19316 -10.19267
 Alpha  occ. eigenvalues --  -10.19229 -10.18596 -10.18543 -10.18452 -10.18402
 Alpha  occ. eigenvalues --  -10.18348  -1.12752  -0.93313  -0.86105  -0.85185
 Alpha  occ. eigenvalues --   -0.79955  -0.75878  -0.74720  -0.73859  -0.71125
 Alpha  occ. eigenvalues --   -0.63958  -0.61026  -0.60171  -0.59354  -0.58111
 Alpha  occ. eigenvalues --   -0.53703  -0.51246  -0.51132  -0.48848  -0.46782
 Alpha  occ. eigenvalues --   -0.45789  -0.44999  -0.43933  -0.43267  -0.42649
 Alpha  occ. eigenvalues --   -0.42094  -0.41412  -0.40652  -0.37292  -0.36448
 Alpha  occ. eigenvalues --   -0.35545  -0.35122  -0.34319  -0.33845  -0.33636
 Alpha  occ. eigenvalues --   -0.30095  -0.28863  -0.25870  -0.25362  -0.24404
 Alpha  occ. eigenvalues --   -0.23397  -0.21759
 Alpha virt. eigenvalues --   -0.03735  -0.00526   0.00469   0.00500   0.01592
 Alpha virt. eigenvalues --    0.05726   0.07660   0.09552   0.10164   0.12812
 Alpha virt. eigenvalues --    0.14600   0.15276   0.15693   0.16188   0.16482
 Alpha virt. eigenvalues --    0.17563   0.18585   0.19230   0.19490   0.20064
 Alpha virt. eigenvalues --    0.25092   0.28145   0.29028   0.30039   0.30306
 Alpha virt. eigenvalues --    0.31101   0.33001   0.34206   0.34697   0.36397
 Alpha virt. eigenvalues --    0.39290   0.40795   0.46921   0.47065   0.51805
 Alpha virt. eigenvalues --    0.52144   0.53180   0.53938   0.54672   0.55050
 Alpha virt. eigenvalues --    0.55585   0.56508   0.57769   0.58427   0.58822
 Alpha virt. eigenvalues --    0.59470   0.59726   0.60075   0.60451   0.61097
 Alpha virt. eigenvalues --    0.61613   0.61799   0.62110   0.63004   0.63287
 Alpha virt. eigenvalues --    0.64640   0.65236   0.66218   0.67681   0.67767
 Alpha virt. eigenvalues --    0.71503   0.72709   0.75573   0.76743   0.79225
 Alpha virt. eigenvalues --    0.79591   0.81656   0.82493   0.83230   0.83697
 Alpha virt. eigenvalues --    0.84146   0.84362   0.84976   0.85220   0.86219
 Alpha virt. eigenvalues --    0.86455   0.87847   0.90351   0.90638   0.91329
 Alpha virt. eigenvalues --    0.92129   0.92948   0.94940   0.95089   0.97264
 Alpha virt. eigenvalues --    0.98203   0.98977   1.01578   1.02046   1.03296
 Alpha virt. eigenvalues --    1.04817   1.08310   1.09565   1.09924   1.12307
 Alpha virt. eigenvalues --    1.12613   1.14241   1.15239   1.16640   1.17181
 Alpha virt. eigenvalues --    1.18811   1.20755   1.21945   1.26247   1.28966
 Alpha virt. eigenvalues --    1.30480   1.31428   1.32926   1.42430   1.42746
 Alpha virt. eigenvalues --    1.43627   1.43761   1.45247   1.46553   1.48054
 Alpha virt. eigenvalues --    1.48672   1.49005   1.49738   1.51028   1.51585
 Alpha virt. eigenvalues --    1.52937   1.54739   1.58493   1.61213   1.65714
 Alpha virt. eigenvalues --    1.68077   1.75218   1.77954   1.80041   1.81615
 Alpha virt. eigenvalues --    1.81818   1.82794   1.84479   1.87119   1.89091
 Alpha virt. eigenvalues --    1.90276   1.91777   1.93249   1.94271   1.95931
 Alpha virt. eigenvalues --    1.96678   1.97494   2.00111   2.01480   2.04546
 Alpha virt. eigenvalues --    2.05980   2.07167   2.10096   2.12515   2.13576
 Alpha virt. eigenvalues --    2.14694   2.15160   2.15547   2.17546   2.18687
 Alpha virt. eigenvalues --    2.20710   2.23024   2.25882   2.27399   2.30257
 Alpha virt. eigenvalues --    2.30446   2.30902   2.31407   2.32769   2.35003
 Alpha virt. eigenvalues --    2.37828   2.42897   2.48916   2.49961   2.54835
 Alpha virt. eigenvalues --    2.57351   2.57886   2.59248   2.62419   2.64167
 Alpha virt. eigenvalues --    2.66253   2.70312   2.72218   2.73522   2.74161
 Alpha virt. eigenvalues --    2.74630   2.75315   2.75898   2.79649   2.84723
 Alpha virt. eigenvalues --    2.88592   2.95126   2.96685   3.02235   3.11745
 Alpha virt. eigenvalues --    3.22115   3.41231   3.43392   3.58576   4.04159
 Alpha virt. eigenvalues --    4.08872   4.09674   4.11361   4.12219   4.13838
 Alpha virt. eigenvalues --    4.15149   4.21625   4.31103   4.33234   4.33992
 Alpha virt. eigenvalues --    4.38741   4.50049   4.70114   4.73050
  Beta  occ. eigenvalues --  -19.21859 -19.19448 -10.20380 -10.19979 -10.19396
  Beta  occ. eigenvalues --  -10.19345 -10.19331 -10.19329 -10.19229 -10.19186
  Beta  occ. eigenvalues --  -10.18603 -10.18575 -10.18546 -10.18456 -10.18407
  Beta  occ. eigenvalues --  -10.18358  -1.10878  -0.90974  -0.85856  -0.85166
  Beta  occ. eigenvalues --   -0.79314  -0.75761  -0.74649  -0.73867  -0.70632
  Beta  occ. eigenvalues --   -0.63155  -0.60794  -0.60094  -0.58664  -0.57128
  Beta  occ. eigenvalues --   -0.53284  -0.51077  -0.50370  -0.48056  -0.46444
  Beta  occ. eigenvalues --   -0.45647  -0.44877  -0.43794  -0.42798  -0.42312
  Beta  occ. eigenvalues --   -0.41423  -0.40986  -0.39957  -0.37071  -0.36187
  Beta  occ. eigenvalues --   -0.35306  -0.34962  -0.34112  -0.33584  -0.32674
  Beta  occ. eigenvalues --   -0.29491  -0.27702  -0.25285  -0.25102  -0.24403
  Beta  occ. eigenvalues --   -0.21768
  Beta virt. eigenvalues --   -0.11082  -0.03281  -0.00383   0.00466   0.00974
  Beta virt. eigenvalues --    0.02153   0.06489   0.08005   0.09604   0.10192
  Beta virt. eigenvalues --    0.12982   0.14628   0.15364   0.15770   0.16291
  Beta virt. eigenvalues --    0.16616   0.17635   0.18635   0.19273   0.19508
  Beta virt. eigenvalues --    0.20231   0.25342   0.28238   0.29266   0.30160
  Beta virt. eigenvalues --    0.30397   0.31105   0.33112   0.34408   0.35010
  Beta virt. eigenvalues --    0.36702   0.39763   0.41391   0.47124   0.47201
  Beta virt. eigenvalues --    0.51978   0.52225   0.53303   0.54003   0.54693
  Beta virt. eigenvalues --    0.55146   0.55676   0.56578   0.57839   0.58538
  Beta virt. eigenvalues --    0.58983   0.59511   0.59818   0.60127   0.60481
  Beta virt. eigenvalues --    0.61178   0.61664   0.61829   0.62170   0.63143
  Beta virt. eigenvalues --    0.63387   0.64795   0.65563   0.66301   0.67753
  Beta virt. eigenvalues --    0.68027   0.71711   0.72901   0.75776   0.76928
  Beta virt. eigenvalues --    0.79327   0.79725   0.81870   0.82735   0.83309
  Beta virt. eigenvalues --    0.83811   0.84230   0.84625   0.85055   0.85387
  Beta virt. eigenvalues --    0.86761   0.87164   0.88739   0.90483   0.91240
  Beta virt. eigenvalues --    0.92110   0.92202   0.93207   0.95028   0.95357
  Beta virt. eigenvalues --    0.97655   0.98629   0.99216   1.01971   1.02608
  Beta virt. eigenvalues --    1.03619   1.05405   1.08960   1.09672   1.10054
  Beta virt. eigenvalues --    1.12523   1.12823   1.14307   1.15510   1.16823
  Beta virt. eigenvalues --    1.17590   1.19009   1.21057   1.22227   1.26363
  Beta virt. eigenvalues --    1.29099   1.30757   1.31826   1.33413   1.42512
  Beta virt. eigenvalues --    1.42875   1.43718   1.43801   1.45299   1.46621
  Beta virt. eigenvalues --    1.48165   1.48712   1.49123   1.49728   1.51102
  Beta virt. eigenvalues --    1.51612   1.53298   1.55562   1.59579   1.61475
  Beta virt. eigenvalues --    1.66635   1.68736   1.75597   1.78561   1.80616
  Beta virt. eigenvalues --    1.81749   1.82029   1.83005   1.85174   1.87590
  Beta virt. eigenvalues --    1.89441   1.90418   1.91905   1.93961   1.94492
  Beta virt. eigenvalues --    1.96463   1.97036   1.97643   2.00661   2.02070
  Beta virt. eigenvalues --    2.04758   2.06075   2.07843   2.10333   2.12884
  Beta virt. eigenvalues --    2.13662   2.14775   2.15243   2.15594   2.18227
  Beta virt. eigenvalues --    2.18932   2.21094   2.23204   2.26216   2.27996
  Beta virt. eigenvalues --    2.30347   2.30851   2.31341   2.31433   2.33074
  Beta virt. eigenvalues --    2.35557   2.38196   2.43524   2.49194   2.50274
  Beta virt. eigenvalues --    2.55165   2.57432   2.57958   2.59315   2.62698
  Beta virt. eigenvalues --    2.64297   2.66363   2.70587   2.72298   2.73572
  Beta virt. eigenvalues --    2.74244   2.74726   2.75340   2.75968   2.79873
  Beta virt. eigenvalues --    2.85319   2.89122   2.95606   2.97079   3.03071
  Beta virt. eigenvalues --    3.12116   3.23373   3.41309   3.43526   3.58870
  Beta virt. eigenvalues --    4.05563   4.08926   4.09670   4.11404   4.12231
  Beta virt. eigenvalues --    4.13881   4.15321   4.21936   4.31522   4.33301
  Beta virt. eigenvalues --    4.34000   4.38881   4.50835   4.70220   4.73311
          Condensed to atoms (all electrons):
               1          2          3          4          5          6
     1  C    4.878446   0.507846   0.548521   0.356953  -0.013950  -0.043302
     2  C    0.507846   5.029187  -0.035036  -0.038910   0.508666   0.349607
     3  C    0.548521  -0.035036   4.851417  -0.043114  -0.035172   0.004926
     4  H    0.356953  -0.038910  -0.043114   0.596245   0.003570  -0.005612
     5  C   -0.013950   0.508666  -0.035172   0.003570   4.725656  -0.044716
     6  H   -0.043302   0.349607   0.004926  -0.005612  -0.044716   0.596035
     7  C   -0.026463  -0.045978   0.548770   0.004651  -0.018688   0.000302
     8  C   -0.045717  -0.047013  -0.036094   0.000820   0.541626   0.005636
     9  H   -0.043487   0.004870   0.359126  -0.005704   0.000596  -0.000176
    10  H    0.004681   0.000752  -0.043253  -0.000189   0.003850   0.000016
    11  H    0.000274   0.006239   0.004869   0.000018  -0.042810  -0.000155
    12  C    0.006738  -0.057395   0.000396  -0.000178   0.303664  -0.010100
    13  C   -0.000192   0.004337   0.000013   0.000001  -0.033306   0.000175
    14  H    0.000175  -0.002048   0.000002  -0.000006  -0.022176   0.002858
    15  C    0.000001  -0.000149   0.000000  -0.000000   0.005964  -0.000001
    16  H   -0.000000   0.000090  -0.000006   0.000000  -0.011409  -0.000000
    17  C   -0.000000   0.000001  -0.000000   0.000000  -0.000199   0.000000
    18  C    0.000000  -0.000000  -0.000000   0.000000   0.000001  -0.000000
    19  H   -0.000000   0.000000   0.000000   0.000000   0.000001   0.000000
    20  C    0.000000  -0.000001   0.000000  -0.000000   0.000304  -0.000007
    21  C   -0.000000  -0.000000   0.000000  -0.000000   0.000000   0.000000
    22  H    0.000000   0.000000  -0.000000   0.000000  -0.000000   0.000000
    23  C    0.000000  -0.000000   0.000000  -0.000000  -0.000001   0.000000
    24  H    0.000000  -0.000000  -0.000000  -0.000000   0.000000   0.000000
    25  H    0.000000   0.000003   0.000000  -0.000000  -0.000156   0.000036
    26  H   -0.000000   0.000000  -0.000000   0.000000  -0.000000  -0.000000
    27  O    0.000042   0.003734  -0.000001   0.000000  -0.006697  -0.001339
    28  O    0.000045  -0.001803   0.000000  -0.000002  -0.001174   0.008140
    29  H   -0.000010   0.000454  -0.000000   0.000000   0.000549   0.000100
               7          8          9         10         11         12
     1  C   -0.026463  -0.045717  -0.043487   0.004681   0.000274   0.006738
     2  C   -0.045978  -0.047013   0.004870   0.000752   0.006239  -0.057395
     3  C    0.548770  -0.036094   0.359126  -0.043253   0.004869   0.000396
     4  H    0.004651   0.000820  -0.005704  -0.000189   0.000018  -0.000178
     5  C   -0.018688   0.541626   0.000596   0.003850  -0.042810   0.303664
     6  H    0.000302   0.005636  -0.000176   0.000016  -0.000155  -0.010100
     7  C    4.877199   0.515113  -0.043551   0.356797  -0.044750   0.006796
     8  C    0.515113   4.975418   0.004897  -0.038874   0.352666  -0.056167
     9  H   -0.043551   0.004897   0.598166  -0.005695  -0.000182   0.000006
    10  H    0.356797  -0.038874  -0.005695   0.594825  -0.005681  -0.000185
    11  H   -0.044750   0.352666  -0.000182  -0.005681   0.597355  -0.008089
    12  C    0.006796  -0.056167   0.000006  -0.000185  -0.008089   5.477129
    13  C    0.000254  -0.011064   0.000000  -0.000004   0.005058   0.512385
    14  H   -0.000106   0.002397  -0.000000   0.000001  -0.000066   0.236566
    15  C   -0.000001   0.000307   0.000000  -0.000000  -0.000173  -0.026637
    16  H   -0.000021   0.003743  -0.000000   0.000005   0.002413  -0.046695
    17  C   -0.000000   0.000005  -0.000000   0.000000   0.000016   0.002391
    18  C    0.000000   0.000000   0.000000  -0.000000   0.000000  -0.000197
    19  H    0.000000  -0.000008  -0.000000  -0.000000   0.000070   0.000396
    20  C   -0.000000  -0.000008   0.000000   0.000000  -0.000001  -0.008668
    21  C    0.000000   0.000000  -0.000000  -0.000000   0.000000   0.000029
    22  H   -0.000000  -0.000000   0.000000   0.000000  -0.000000   0.000001
    23  C   -0.000000  -0.000000  -0.000000   0.000000  -0.000000   0.000165
    24  H   -0.000000   0.000000  -0.000000   0.000000  -0.000000   0.000000
    25  H   -0.000000  -0.000002  -0.000000   0.000000  -0.000000   0.003435
    26  H    0.000000   0.000000   0.000000  -0.000000   0.000000  -0.000003
    27  O    0.000004  -0.000304  -0.000000   0.000000  -0.000009  -0.134417
    28  O   -0.000000  -0.000002   0.000000  -0.000000   0.000000   0.007263
    29  H   -0.000000   0.000004  -0.000000   0.000000  -0.000000  -0.001189
              13         14         15         16         17         18
     1  C   -0.000192   0.000175   0.000001  -0.000000  -0.000000   0.000000
     2  C    0.004337  -0.002048  -0.000149   0.000090   0.000001  -0.000000
     3  C    0.000013   0.000002   0.000000  -0.000006  -0.000000  -0.000000
     4  H    0.000001  -0.000006  -0.000000   0.000000   0.000000   0.000000
     5  C   -0.033306  -0.022176   0.005964  -0.011409  -0.000199   0.000001
     6  H    0.000175   0.002858  -0.000001  -0.000000   0.000000  -0.000000
     7  C    0.000254  -0.000106  -0.000001  -0.000021  -0.000000   0.000000
     8  C   -0.011064   0.002397   0.000307   0.003743   0.000005   0.000000
     9  H    0.000000  -0.000000   0.000000  -0.000000  -0.000000   0.000000
    10  H   -0.000004   0.000001  -0.000000   0.000005   0.000000  -0.000000
    11  H    0.005058  -0.000066  -0.000173   0.002413   0.000016   0.000000
    12  C    0.512385   0.236566  -0.026637  -0.046695   0.002391  -0.000197
    13  C    5.172499  -0.022867   0.342420   0.351642  -0.052468   0.006717
    14  H   -0.022867   0.380638  -0.004757   0.003448   0.000155  -0.000013
    15  C    0.342420  -0.004757   4.669970  -0.044393   0.519271  -0.013733
    16  H    0.351642   0.003448  -0.044393   0.582979  -0.004288   0.000051
    17  C   -0.052468   0.000155   0.519271  -0.004288   4.990419   0.517597
    18  C    0.006717  -0.000013  -0.013733   0.000051   0.517597   4.868973
    19  H   -0.007587  -0.000004  -0.048835   0.003521   0.356379  -0.044606
    20  C   -0.058896   0.004259   0.547223   0.003578  -0.038987  -0.046580
    21  C    0.000485  -0.000007  -0.034316   0.000011  -0.036528   0.550701
    22  H   -0.000192   0.000000   0.003628  -0.000001  -0.039814   0.356737
    23  C    0.007353   0.000141  -0.018045  -0.000167  -0.046875  -0.025971
    24  H    0.000005  -0.000000   0.000618  -0.000000   0.004969  -0.043855
    25  H   -0.007152   0.001955  -0.042833   0.000097   0.005843   0.000312
    26  H   -0.000198  -0.000003   0.003710   0.000003   0.000873   0.004579
    27  O   -0.008262  -0.026885   0.004654  -0.000265  -0.000037  -0.000003
    28  O    0.000145   0.002785  -0.000120   0.000002   0.000001  -0.000000
    29  H   -0.000074  -0.001525   0.000012  -0.000000   0.000000   0.000000
              19         20         21         22         23         24
     1  C   -0.000000   0.000000  -0.000000   0.000000   0.000000   0.000000
     2  C    0.000000  -0.000001  -0.000000   0.000000  -0.000000  -0.000000
     3  C    0.000000   0.000000   0.000000  -0.000000   0.000000  -0.000000
     4  H    0.000000  -0.000000  -0.000000   0.000000  -0.000000  -0.000000
     5  C    0.000001   0.000304   0.000000  -0.000000  -0.000001   0.000000
     6  H    0.000000  -0.000007   0.000000   0.000000   0.000000   0.000000
     7  C    0.000000  -0.000000   0.000000  -0.000000  -0.000000  -0.000000
     8  C   -0.000008  -0.000008   0.000000  -0.000000  -0.000000   0.000000
     9  H   -0.000000   0.000000  -0.000000   0.000000  -0.000000  -0.000000
    10  H   -0.000000   0.000000  -0.000000   0.000000   0.000000   0.000000
    11  H    0.000070  -0.000001   0.000000  -0.000000  -0.000000  -0.000000
    12  C    0.000396  -0.008668   0.000029   0.000001   0.000165   0.000000
    13  C   -0.007587  -0.058896   0.000485  -0.000192   0.007353   0.000005
    14  H   -0.000004   0.004259  -0.000007   0.000000   0.000141  -0.000000
    15  C   -0.048835   0.547223  -0.034316   0.003628  -0.018045   0.000618
    16  H    0.003521   0.003578   0.000011  -0.000001  -0.000167  -0.000000
    17  C    0.356379  -0.038987  -0.036528  -0.039814  -0.046875   0.004969
    18  C   -0.044606  -0.046580   0.550701   0.356737  -0.025971  -0.043855
    19  H    0.610953   0.005726   0.004920  -0.005674   0.000348  -0.000187
    20  C    0.005726   4.950584  -0.036273   0.000832   0.514547   0.004930
    21  C    0.004920  -0.036273   4.851359  -0.043380   0.549715   0.358275
    22  H   -0.005674   0.000832  -0.043380   0.600977   0.004615  -0.005736
    23  C    0.000348   0.514547   0.549715   0.004615   4.877682  -0.043842
    24  H   -0.000187   0.004930   0.358275  -0.005736  -0.043842   0.603271
    25  H   -0.000160   0.354487   0.004776   0.000017  -0.042817  -0.000178
    26  H    0.000018  -0.037951  -0.043839  -0.000190   0.356513  -0.005735
    27  O    0.000001   0.001027   0.000006  -0.000000  -0.000156   0.000000
    28  O    0.000000  -0.000900   0.000000  -0.000000  -0.000014   0.000000
    29  H   -0.000000   0.000059  -0.000000   0.000000   0.000001  -0.000000
              25         26         27         28         29
     1  C    0.000000  -0.000000   0.000042   0.000045  -0.000010
     2  C    0.000003   0.000000   0.003734  -0.001803   0.000454
     3  C    0.000000  -0.000000  -0.000001   0.000000  -0.000000
     4  H   -0.000000   0.000000   0.000000  -0.000002   0.000000
     5  C   -0.000156  -0.000000  -0.006697  -0.001174   0.000549
     6  H    0.000036  -0.000000  -0.001339   0.008140   0.000100
     7  C   -0.000000   0.000000   0.000004  -0.000000  -0.000000
     8  C   -0.000002   0.000000  -0.000304  -0.000002   0.000004
     9  H   -0.000000   0.000000  -0.000000   0.000000  -0.000000
    10  H    0.000000  -0.000000   0.000000  -0.000000   0.000000
    11  H   -0.000000   0.000000  -0.000009   0.000000  -0.000000
    12  C    0.003435  -0.000003  -0.134417   0.007263  -0.001189
    13  C   -0.007152  -0.000198  -0.008262   0.000145  -0.000074
    14  H    0.001955  -0.000003  -0.026885   0.002785  -0.001525
    15  C   -0.042833   0.003710   0.004654  -0.000120   0.000012
    16  H    0.000097   0.000003  -0.000265   0.000002  -0.000000
    17  C    0.005843   0.000873  -0.000037   0.000001   0.000000
    18  C    0.000312   0.004579  -0.000003  -0.000000   0.000000
    19  H   -0.000160   0.000018   0.000001   0.000000  -0.000000
    20  C    0.354487  -0.037951   0.001027  -0.000900   0.000059
    21  C    0.004776  -0.043839   0.000006   0.000000  -0.000000
    22  H    0.000017  -0.000190  -0.000000  -0.000000   0.000000
    23  C   -0.042817   0.356513  -0.000156  -0.000014   0.000001
    24  H   -0.000178  -0.005735   0.000000   0.000000  -0.000000
    25  H    0.581558  -0.005551  -0.000121   0.002399  -0.000056
    26  H   -0.005551   0.596276  -0.000001  -0.000001  -0.000000
    27  O   -0.000121  -0.000001   8.480279   0.058474  -0.017632
    28  O    0.002399  -0.000001   0.058474   8.095950   0.219047
    29  H   -0.000056  -0.000000  -0.017632   0.219047   0.375301
          Atomic-Atomic Spin Densities.
               1          2          3          4          5          6
     1  C   -0.021449  -0.000283   0.000512   0.000146  -0.000063   0.000172
     2  C   -0.000283   0.042509  -0.001488  -0.000014   0.008627  -0.003623
     3  C    0.000512  -0.001488   0.040054  -0.000082  -0.000043  -0.000001
     4  H    0.000146  -0.000014  -0.000082   0.000708   0.000006  -0.000036
     5  C   -0.000063   0.008627  -0.000043   0.000006  -0.016239  -0.000899
     6  H    0.000172  -0.003623  -0.000001  -0.000036  -0.000899   0.001491
     7  C    0.000082  -0.000034   0.000816  -0.000001   0.001222  -0.000069
     8  C   -0.000111  -0.000369  -0.001523  -0.000008  -0.007811   0.000490
     9  H    0.000056   0.000008   0.000018   0.000015  -0.000001   0.000000
    10  H   -0.000008   0.000004  -0.000169  -0.000001  -0.000101   0.000001
    11  H   -0.000005  -0.000040  -0.000000  -0.000000  -0.000454   0.000006
    12  C    0.000070  -0.006774   0.000048  -0.000005  -0.022258   0.002917
    13  C    0.000007   0.000254   0.000005   0.000000   0.012097  -0.000256
    14  H   -0.000001  -0.002161   0.000005  -0.000001  -0.003990   0.001107
    15  C    0.000000   0.000008   0.000000   0.000000   0.000334  -0.000010
    16  H   -0.000003   0.000029  -0.000006  -0.000000  -0.003279   0.000034
    17  C   -0.000000  -0.000000   0.000000  -0.000000  -0.000000   0.000000
    18  C    0.000000  -0.000000   0.000000   0.000000  -0.000000   0.000000
    19  H    0.000000  -0.000000  -0.000000  -0.000000  -0.000003   0.000000
    20  C   -0.000000   0.000000  -0.000000  -0.000000  -0.000030   0.000000
    21  C    0.000000   0.000000   0.000000   0.000000   0.000000  -0.000000
    22  H   -0.000000   0.000000  -0.000000  -0.000000  -0.000000   0.000000
    23  C   -0.000000   0.000000   0.000000  -0.000000   0.000000  -0.000000
    24  H    0.000000  -0.000000  -0.000000  -0.000000  -0.000000   0.000000
    25  H    0.000000  -0.000000  -0.000000  -0.000000  -0.000009   0.000002
    26  H    0.000000  -0.000000  -0.000000  -0.000000  -0.000000   0.000000
    27  O   -0.000004   0.002771  -0.000001   0.000000   0.007313  -0.001828
    28  O   -0.000000  -0.000756   0.000000  -0.000000  -0.000267   0.000897
    29  H    0.000000   0.000150  -0.000000   0.000000   0.000017  -0.000141
               7          8          9         10         11         12
     1  C    0.000082  -0.000111   0.000056  -0.000008  -0.000005   0.000070
     2  C   -0.000034  -0.000369   0.000008   0.000004  -0.000040  -0.006774
     3  C    0.000816  -0.001523   0.000018  -0.000169  -0.000000   0.000048
     4  H   -0.000001  -0.000008   0.000015  -0.000001  -0.000000  -0.000005
     5  C    0.001222  -0.007811  -0.000001  -0.000101  -0.000454  -0.022258
     6  H   -0.000069   0.000490   0.000000   0.000001   0.000006   0.002917
     7  C   -0.015823  -0.004367   0.000049  -0.000484  -0.000396   0.000383
     8  C   -0.004367   0.064222  -0.000005   0.000074   0.001208  -0.005665
     9  H    0.000049  -0.000005  -0.001989   0.000010   0.000000   0.000000
    10  H   -0.000484   0.000074   0.000010   0.002482   0.000129  -0.000015
    11  H   -0.000396   0.001208   0.000000   0.000129  -0.002138  -0.000434
    12  C    0.000383  -0.005665   0.000000  -0.000015  -0.000434   0.703667
    13  C    0.000088  -0.003314   0.000000  -0.000004  -0.000505  -0.040602
    14  H   -0.000031   0.000861  -0.000000   0.000000   0.000041   0.081341
    15  C    0.000001  -0.000123   0.000000  -0.000000  -0.000017  -0.009602
    16  H   -0.000133   0.003101  -0.000000   0.000007   0.000622  -0.002246
    17  C   -0.000000   0.000001  -0.000000   0.000000   0.000000   0.000197
    18  C   -0.000000   0.000000  -0.000000   0.000000  -0.000000   0.000003
    19  H   -0.000000   0.000001  -0.000000   0.000000   0.000002   0.000054
    20  C   -0.000000   0.000002  -0.000000   0.000000   0.000000   0.000529
    21  C    0.000000  -0.000000   0.000000  -0.000000  -0.000000  -0.000002
    22  H    0.000000   0.000000  -0.000000   0.000000   0.000000   0.000000
    23  C    0.000000  -0.000000  -0.000000  -0.000000  -0.000000  -0.000096
    24  H   -0.000000   0.000000  -0.000000   0.000000  -0.000000  -0.000000
    25  H   -0.000000   0.000000  -0.000000   0.000000   0.000000   0.000517
    26  H   -0.000000   0.000000  -0.000000   0.000000   0.000000   0.000003
    27  O    0.000006  -0.000332   0.000000  -0.000000  -0.000014  -0.165869
    28  O   -0.000000   0.000010  -0.000000   0.000000   0.000000   0.011690
    29  H    0.000000  -0.000002   0.000000  -0.000000  -0.000000  -0.000673
              13         14         15         16         17         18
     1  C    0.000007  -0.000001   0.000000  -0.000003  -0.000000   0.000000
     2  C    0.000254  -0.002161   0.000008   0.000029  -0.000000  -0.000000
     3  C    0.000005   0.000005   0.000000  -0.000006   0.000000   0.000000
     4  H    0.000000  -0.000001   0.000000  -0.000000  -0.000000   0.000000
     5  C    0.012097  -0.003990   0.000334  -0.003279  -0.000000  -0.000000
     6  H   -0.000256   0.001107  -0.000010   0.000034   0.000000   0.000000
     7  C    0.000088  -0.000031   0.000001  -0.000133  -0.000000  -0.000000
     8  C   -0.003314   0.000861  -0.000123   0.003101   0.000001   0.000000
     9  H    0.000000  -0.000000   0.000000  -0.000000  -0.000000  -0.000000
    10  H   -0.000004   0.000000  -0.000000   0.000007   0.000000   0.000000
    11  H   -0.000505   0.000041  -0.000017   0.000622   0.000000  -0.000000
    12  C   -0.040602   0.081341  -0.009602  -0.002246   0.000197   0.000003
    13  C   -0.069217  -0.010956   0.016809  -0.009484   0.000924  -0.000117
    14  H   -0.010956  -0.014291  -0.001771   0.001123   0.000029  -0.000000
    15  C    0.016809  -0.001771   0.028553  -0.009450  -0.001308   0.000222
    16  H   -0.009484   0.001123  -0.009450   0.062175   0.000048  -0.000010
    17  C    0.000924   0.000029  -0.001308   0.000048  -0.010943   0.000648
    18  C   -0.000117  -0.000000   0.000222  -0.000010   0.000648   0.004999
    19  H   -0.000087   0.000007  -0.000280   0.000370  -0.000092  -0.000112
    20  C    0.001014   0.000238  -0.003041   0.000412  -0.000093  -0.000045
    21  C   -0.000018  -0.000000   0.000034  -0.000002   0.000384  -0.000094
    22  H    0.000005   0.000000  -0.000014   0.000001  -0.000122   0.000152
    23  C   -0.000123  -0.000039   0.000290  -0.000018  -0.000040  -0.000006
    24  H   -0.000000   0.000000   0.000000   0.000000   0.000001  -0.000009
    25  H   -0.000393   0.000199  -0.000025   0.000030   0.000003   0.000002
    26  H    0.000004   0.000001  -0.000012   0.000000   0.000001   0.000003
    27  O    0.010434  -0.080992   0.001433  -0.000425  -0.000017   0.000000
    28  O   -0.000424   0.008939  -0.000058   0.000009   0.000000   0.000000
    29  H    0.000021  -0.000587   0.000002  -0.000000  -0.000000  -0.000000
              19         20         21         22         23         24
     1  C    0.000000  -0.000000   0.000000  -0.000000  -0.000000   0.000000
     2  C   -0.000000   0.000000   0.000000   0.000000   0.000000  -0.000000
     3  C   -0.000000  -0.000000   0.000000  -0.000000   0.000000  -0.000000
     4  H   -0.000000  -0.000000   0.000000  -0.000000  -0.000000  -0.000000
     5  C   -0.000003  -0.000030   0.000000  -0.000000   0.000000  -0.000000
     6  H    0.000000   0.000000  -0.000000   0.000000  -0.000000   0.000000
     7  C   -0.000000  -0.000000   0.000000   0.000000   0.000000  -0.000000
     8  C    0.000001   0.000002  -0.000000   0.000000  -0.000000   0.000000
     9  H   -0.000000  -0.000000   0.000000  -0.000000  -0.000000  -0.000000
    10  H    0.000000   0.000000  -0.000000   0.000000  -0.000000   0.000000
    11  H    0.000002   0.000000  -0.000000   0.000000  -0.000000  -0.000000
    12  C    0.000054   0.000529  -0.000002   0.000000  -0.000096  -0.000000
    13  C   -0.000087   0.001014  -0.000018   0.000005  -0.000123  -0.000000
    14  H    0.000007   0.000238  -0.000000   0.000000  -0.000039   0.000000
    15  C   -0.000280  -0.003041   0.000034  -0.000014   0.000290   0.000000
    16  H    0.000370   0.000412  -0.000002   0.000001  -0.000018   0.000000
    17  C   -0.000092  -0.000093   0.000384  -0.000122  -0.000040   0.000001
    18  C   -0.000112  -0.000045  -0.000094   0.000152  -0.000006  -0.000009
    19  H    0.000655   0.000034  -0.000007   0.000028  -0.000003  -0.000000
    20  C    0.000034  -0.009429   0.000303   0.000005   0.000430  -0.000000
    21  C   -0.000007   0.000303  -0.009697   0.000061   0.000061   0.000001
    22  H    0.000028   0.000005   0.000061  -0.000398   0.000000  -0.000001
    23  C   -0.000003   0.000430   0.000061   0.000000   0.005364  -0.000015
    24  H   -0.000000  -0.000000   0.000001  -0.000001  -0.000015   0.000448
    25  H    0.000001   0.000169  -0.000010  -0.000000  -0.000208  -0.000000
    26  H    0.000000  -0.000116   0.000030   0.000001   0.000095  -0.000002
    27  O   -0.000001  -0.000126  -0.000000  -0.000000   0.000026  -0.000000
    28  O    0.000000  -0.000012   0.000000   0.000000  -0.000002   0.000000
    29  H   -0.000000   0.000000   0.000000  -0.000000   0.000000  -0.000000
              25         26         27         28         29
     1  C    0.000000   0.000000  -0.000004  -0.000000   0.000000
     2  C   -0.000000  -0.000000   0.002771  -0.000756   0.000150
     3  C   -0.000000  -0.000000  -0.000001   0.000000  -0.000000
     4  H   -0.000000  -0.000000   0.000000  -0.000000   0.000000
     5  C   -0.000009  -0.000000   0.007313  -0.000267   0.000017
     6  H    0.000002   0.000000  -0.001828   0.000897  -0.000141
     7  C   -0.000000  -0.000000   0.000006  -0.000000   0.000000
     8  C    0.000000   0.000000  -0.000332   0.000010  -0.000002
     9  H   -0.000000  -0.000000   0.000000  -0.000000   0.000000
    10  H    0.000000   0.000000  -0.000000   0.000000  -0.000000
    11  H    0.000000   0.000000  -0.000014   0.000000  -0.000000
    12  C    0.000517   0.000003  -0.165869   0.011690  -0.000673
    13  C   -0.000393   0.000004   0.010434  -0.000424   0.000021
    14  H    0.000199   0.000001  -0.080992   0.008939  -0.000587
    15  C   -0.000025  -0.000012   0.001433  -0.000058   0.000002
    16  H    0.000030   0.000000  -0.000425   0.000009  -0.000000
    17  C    0.000003   0.000001  -0.000017   0.000000  -0.000000
    18  C    0.000002   0.000003   0.000000   0.000000  -0.000000
    19  H    0.000001   0.000000  -0.000001   0.000000  -0.000000
    20  C    0.000169  -0.000116  -0.000126  -0.000012   0.000000
    21  C   -0.000010   0.000030  -0.000000   0.000000   0.000000
    22  H   -0.000000   0.000001  -0.000000   0.000000  -0.000000
    23  C   -0.000208   0.000095   0.000026  -0.000002   0.000000
    24  H   -0.000000  -0.000002  -0.000000   0.000000  -0.000000
    25  H    0.000257   0.000037  -0.000288   0.000052  -0.000003
    26  H    0.000037  -0.000208  -0.000001  -0.000000  -0.000000
    27  O   -0.000288  -0.000001   0.677074  -0.049987   0.000905
    28  O    0.000052  -0.000000  -0.049987   0.094744  -0.001229
    29  H   -0.000003  -0.000000   0.000905  -0.001229   0.000450
 Mulliken charges and spin densities:
               1          2
     1  C   -0.130601  -0.020883
     2  C   -0.187453   0.038819
     3  C   -0.125365   0.038145
     4  H    0.131455   0.000726
     5  C    0.136006  -0.025833
     6  H    0.137576   0.000256
     7  C   -0.130326  -0.018691
     8  C   -0.167381   0.046341
     9  H    0.131135  -0.001839
    10  H    0.132954   0.001926
    11  H    0.132937  -0.001995
    12  C   -0.207440   0.547179
    13  C   -0.201230  -0.093837
    14  H    0.445083  -0.020930
    15  C    0.136215   0.021977
    16  H    0.155662   0.042905
    17  C   -0.178723  -0.010380
    18  C   -0.130708   0.005636
    19  H    0.124728   0.000567
    20  C   -0.159285  -0.009755
    21  C   -0.125935  -0.008957
    22  H    0.128180  -0.000282
    23  C   -0.133191   0.005717
    24  H    0.127465   0.000423
    25  H    0.144109   0.000334
    26  H    0.131501  -0.000164
    27  O   -0.352092   0.400078
    28  O   -0.390236   0.063606
    29  H    0.424958  -0.001088
 Sum of Mulliken charges =  -0.00000   1.00000
 Mulliken charges and spin densities with hydrogens summed into heavy atoms:
               1          2
     1  C    0.000854  -0.020157
     2  C   -0.049877   0.039075
     3  C    0.005770   0.036306
     5  C    0.136006  -0.025833
     7  C    0.002628  -0.016766
     8  C   -0.034445   0.044345
    12  C   -0.207440   0.547179
    13  C   -0.045568  -0.050932
    15  C    0.136215   0.021977
    17  C   -0.053995  -0.009813
    18  C   -0.002528   0.005354
    20  C   -0.015176  -0.009421
    21  C    0.001531  -0.008534
    23  C   -0.001690   0.005553
    27  O    0.092991   0.379148
    28  O    0.034723   0.062518
 Electronic spatial extent (au):  <R**2>=           4776.9989
 Charge=              0.0000 electrons
 Dipole moment (field-independent basis, Debye):
    X=             -1.5507    Y=             -0.2297    Z=              0.1132  Tot=              1.5717
 Quadrupole moment (field-independent basis, Debye-Ang):
   XX=            -80.2842   YY=            -81.3390   ZZ=            -95.9996
   XY=             -3.6680   XZ=             -0.4360   YZ=             -1.6053
 Traceless Quadrupole moment (field-independent basis, Debye-Ang):
   XX=              5.5901   YY=              4.5353   ZZ=            -10.1254
   XY=             -3.6680   XZ=             -0.4360   YZ=             -1.6053
 Octapole moment (field-independent basis, Debye-Ang**2):
  XXX=             -6.6851  YYY=             34.9497  ZZZ=              8.8468  XYY=            -19.0286
  XXY=              7.8402  XXZ=              1.9151  XZZ=             -0.9592  YZZ=             13.8589
  YYZ=             17.2546  XYZ=             -7.0566
 Hexadecapole moment (field-independent basis, Debye-Ang**3):
 XXXX=          -4638.0288 YYYY=           -955.7567 ZZZZ=           -239.3996 XXXY=             26.4980
 XXXZ=             50.2712 YYYX=            -53.4566 YYYZ=             42.9712 ZZZX=             -1.4387
 ZZZY=             18.0779 XXYY=           -961.0086 XXZZ=           -958.6761 YYZZ=           -203.9187
 XXYZ=            -55.9295 YYXZ=            -17.0695 ZZXY=             -6.9550
 N-N= 9.718239167154D+02 E-N=-3.551954317983D+03  KE= 6.855844808513D+02
                          Isotropic Fermi Contact Couplings
        Atom                 a.u.       MegaHertz       Gauss      10(-4) cm-1
     1  C(13)             -0.00316      -3.54761      -1.26587      -1.18335
     2  C(13)              0.00776       8.72892       3.11470       2.91165
     3  C(13)              0.00412       4.63546       1.65405       1.54622
     4  H(1)               0.00022       0.97615       0.34832       0.32561
     5  C(13)              0.00808       9.08792       3.24280       3.03140
     6  H(1)              -0.00054      -2.41079      -0.86023      -0.80415
     7  C(13)             -0.00053      -0.60083      -0.21439      -0.20042
     8  C(13)              0.01289      14.48909       5.17007       4.83304
     9  H(1)              -0.00058      -2.57571      -0.91908      -0.85916
    10  H(1)               0.00075       3.36225       1.19973       1.12153
    11  H(1)              -0.00077      -3.44704      -1.22999      -1.14981
    12  C(13)              0.28166     316.64511     112.98685     105.62144
    13  C(13)              0.00873       9.81222       3.50125       3.27301
    14  H(1)              -0.02072     -92.61267     -33.04650     -30.89226
    15  C(13)              0.01137      12.77796       4.55949       4.26227
    16  H(1)               0.01686      75.35121      26.88718      25.13446
    17  C(13)             -0.00320      -3.59895      -1.28419      -1.20048
    18  C(13)              0.00048       0.54018       0.19275       0.18018
    19  H(1)               0.00014       0.61140       0.21816       0.20394
    20  C(13)             -0.00282      -3.17299      -1.13220      -1.05840
    21  C(13)             -0.00089      -0.99595      -0.35538      -0.33221
    22  H(1)              -0.00008      -0.35883      -0.12804      -0.11969
    23  C(13)              0.00072       0.80910       0.28871       0.26989
    24  H(1)               0.00013       0.58215       0.20773       0.19419
    25  H(1)               0.00012       0.52130       0.18601       0.17389
    26  H(1)              -0.00003      -0.12622      -0.04504      -0.04210
    27  O(17)              0.19344    -117.26224     -41.84208     -39.11447
    28  O(17)              0.02534     -15.35883      -5.48041      -5.12315
    29  H(1)              -0.00008      -0.37763      -0.13475      -0.12597
 --------------------------------------------------------
       Center         ----  Spin Dipole Couplings  ----
                      3XX-RR        3YY-RR        3ZZ-RR
 --------------------------------------------------------
     1   Atom        0.011200      0.003906     -0.015107
     2   Atom       -0.008249     -0.017271      0.025520
     3   Atom       -0.014835     -0.013128      0.027962
     4   Atom        0.002247     -0.000937     -0.001310
     5   Atom        0.051935     -0.005337     -0.046598
     6   Atom        0.003542     -0.001060     -0.002482
     7   Atom        0.014022      0.002590     -0.016611
     8   Atom       -0.014991     -0.014609      0.029600
     9   Atom        0.003778     -0.002635     -0.001143
    10   Atom        0.001390      0.000151     -0.001540
    11   Atom       -0.002183      0.004868     -0.002685
    12   Atom       -0.279698      0.411991     -0.132293
    13   Atom        0.041085      0.044590     -0.085675
    14   Atom       -0.171028      0.239792     -0.068763
    15   Atom        0.014591     -0.009805     -0.004787
    16   Atom        0.000525      0.004340     -0.004865
    17   Atom        0.004759      0.002080     -0.006840
    18   Atom       -0.001361     -0.001339      0.002701
    19   Atom        0.000846      0.000416     -0.001262
    20   Atom        0.009448     -0.001892     -0.007555
    21   Atom        0.005689      0.001647     -0.007336
    22   Atom        0.000600     -0.000052     -0.000549
    23   Atom        0.000369     -0.002684      0.002315
    24   Atom        0.000498     -0.000041     -0.000456
    25   Atom        0.004310     -0.004631      0.000321
    26   Atom        0.001599     -0.000864     -0.000735
    27   Atom       -0.543972     -0.340437      0.884410
    28   Atom       -0.045004      0.206788     -0.161783
    29   Atom       -0.000420      0.011594     -0.011174
 --------------------------------------------------------
                        XY            XZ            YZ
 --------------------------------------------------------
     1   Atom        0.001665      0.003847     -0.007621
     2   Atom       -0.001174      0.004774      0.016225
     3   Atom       -0.001231     -0.005491      0.018720
     4   Atom        0.000408      0.000774     -0.000167
     5   Atom        0.027995      0.015232     -0.008040
     6   Atom       -0.002642      0.005690     -0.002944
     7   Atom        0.003235      0.000981     -0.008189
     8   Atom        0.010252     -0.020057     -0.004042
     9   Atom        0.001120      0.000092      0.000777
    10   Atom        0.000922      0.000050     -0.000247
    11   Atom        0.001377     -0.000162     -0.003033
    12   Atom        0.222279      0.092908      0.247562
    13   Atom       -0.038773     -0.013569      0.056729
    14   Atom        0.098471      0.051581      0.219000
    15   Atom       -0.005242     -0.004837      0.006748
    16   Atom       -0.003934     -0.001459      0.005350
    17   Atom       -0.000311      0.003474     -0.005205
    18   Atom       -0.001582     -0.000201      0.002700
    19   Atom       -0.002478      0.000676     -0.000150
    20   Atom       -0.001594     -0.004797     -0.006146
    21   Atom       -0.000174      0.000919     -0.004634
    22   Atom       -0.001036      0.000197     -0.000004
    23   Atom       -0.000728     -0.002593      0.002637
    24   Atom       -0.000441     -0.000157     -0.000169
    25   Atom        0.002068     -0.007280     -0.000470
    26   Atom        0.000463     -0.001156     -0.000041
    27   Atom        0.454597      0.871850      1.010128
    28   Atom        0.289188      0.063964      0.262477
    29   Atom       -0.010277     -0.009701      0.006563
 --------------------------------------------------------


 ---------------------------------------------------------------------------------
              Anisotropic Spin Dipole Couplings in Principal Axis System
 ---------------------------------------------------------------------------------

       Atom             a.u.   MegaHertz   Gauss  10(-4) cm-1        Axes

              Baa    -0.0184    -2.466    -0.880    -0.823 -0.1400  0.3298  0.9336
     1 C(13)  Bbb     0.0066     0.881     0.314     0.294 -0.0552  0.9388 -0.3399
              Bcc     0.0118     1.585     0.565     0.529  0.9886  0.0991  0.1133
 
              Baa    -0.0232    -3.113    -1.111    -1.039  0.1772  0.9284 -0.3265
     2 C(13)  Bbb    -0.0082    -1.102    -0.393    -0.368  0.9786 -0.2014 -0.0416
              Bcc     0.0314     4.215     1.504     1.406  0.1044  0.3122  0.9443
 
              Baa    -0.0205    -2.753    -0.982    -0.918 -0.1609  0.9144 -0.3714
     3 C(13)  Bbb    -0.0153    -2.054    -0.733    -0.685  0.9809  0.1898  0.0424
              Bcc     0.0358     4.807     1.715     1.604 -0.1092  0.3575  0.9275
 
              Baa    -0.0016    -0.839    -0.299    -0.280 -0.2224  0.3786  0.8984
     4 H(1)   Bbb    -0.0009    -0.467    -0.167    -0.156 -0.0226  0.9193 -0.3930
              Bcc     0.0024     1.306     0.466     0.436  0.9747  0.1077  0.1959
 
              Baa    -0.0525    -7.048    -2.515    -2.351 -0.2128  0.2855  0.9345
     5 C(13)  Bbb    -0.0119    -1.603    -0.572    -0.535 -0.3078  0.8881 -0.3414
              Bcc     0.0645     8.651     3.087     2.886  0.9274  0.3603  0.1011
 
              Baa    -0.0062    -3.327    -1.187    -1.110 -0.4282  0.2716  0.8619
     6 H(1)   Bbb    -0.0022    -1.198    -0.428    -0.400  0.4571  0.8878 -0.0527
              Bcc     0.0085     4.526     1.615     1.510  0.7796 -0.3714  0.5043
 
              Baa    -0.0198    -2.651    -0.946    -0.884 -0.0608  0.3512  0.9343
     7 C(13)  Bbb     0.0048     0.648     0.231     0.216 -0.2767  0.8934 -0.3539
              Bcc     0.0149     2.002     0.715     0.668  0.9590  0.2800 -0.0429
 
              Baa    -0.0280    -3.752    -1.339    -1.252  0.8036 -0.5438  0.2418
     8 C(13)  Bbb    -0.0104    -1.396    -0.498    -0.465  0.4644  0.8271  0.3165
              Bcc     0.0384     5.148     1.837     1.717 -0.3721 -0.1420  0.9173
 
              Baa    -0.0031    -1.660    -0.592    -0.554 -0.1451  0.9226 -0.3574
     9 H(1)   Bbb    -0.0009    -0.462    -0.165    -0.154 -0.1018  0.3454  0.9329
              Bcc     0.0040     2.122     0.757     0.708  0.9842  0.1718  0.0438
 
              Baa    -0.0016    -0.848    -0.302    -0.283 -0.0714  0.1771  0.9816
    10 H(1)   Bbb    -0.0003    -0.157    -0.056    -0.052 -0.4673  0.8635 -0.1898
              Bcc     0.0019     1.005     0.358     0.335  0.8812  0.4723 -0.0211
 
              Baa    -0.0038    -2.036    -0.727    -0.679 -0.2060  0.3516  0.9132
    11 H(1)   Bbb    -0.0023    -1.248    -0.445    -0.416  0.9653 -0.0798  0.2485
              Bcc     0.0062     3.284     1.172     1.096  0.1603  0.9327 -0.3230
 
              Baa    -0.3478   -46.676   -16.655   -15.569  0.9613 -0.2336 -0.1460
    12 C(13)  Bbb    -0.2277   -30.559   -10.904   -10.193  0.0494 -0.3753  0.9256
              Bcc     0.5756    77.235    27.559    25.763  0.2711  0.8970  0.3493
 
              Baa    -0.1069   -14.348    -5.120    -4.786 -0.0064 -0.3521  0.9359
    13 C(13)  Bbb     0.0106     1.418     0.506     0.473  0.8026  0.5565  0.2148
              Bcc     0.0964    12.929     4.614     4.313 -0.5965  0.7526  0.2790
 
              Baa    -0.1936  -103.314   -36.865   -34.462  0.9792 -0.1589 -0.1257
    14 H(1)   Bbb    -0.1824   -97.296   -34.717   -32.454  0.0376 -0.4671  0.8834
              Bcc     0.3760   200.610    71.583    66.916  0.1991  0.8698  0.4514
 
              Baa    -0.0146    -1.957    -0.698    -0.653  0.0596  0.8357 -0.5460
    15 C(13)  Bbb    -0.0028    -0.382    -0.136    -0.127  0.3668  0.4904  0.7906
              Bcc     0.0174     2.339     0.835     0.780  0.9284 -0.2474 -0.2773
 
              Baa    -0.0073    -3.914    -1.396    -1.305 -0.0475 -0.4293  0.9019
    16 H(1)   Bbb    -0.0016    -0.830    -0.296    -0.277  0.8930  0.3864  0.2309
[...]
   A41        2.10771  -0.00014   0.00210  -0.00073   0.00263   2.11034
   A42        2.10172  -0.00003   0.00319   0.00005  -0.00071   2.10101
   A43        2.07376   0.00017  -0.00527   0.00069  -0.00192   2.07183
   A44        1.96032   0.00047   0.00231   0.00374  -0.44387   1.51645
   A45        1.83643  -0.00038   0.00392  -0.00309  -0.11001   1.72642
    D1        0.00929  -0.00002  -0.00416  -0.00115  -0.00364   0.00565
    D2       -3.13753  -0.00004   0.00134  -0.00179  -0.00033  -3.13787
    D3       -3.13438  -0.00001  -0.00401  -0.00112  -0.00347  -3.13785
    D4        0.00198  -0.00004   0.00148  -0.00176  -0.00016   0.00182
    D5        0.00769  -0.00004   0.00106  -0.00240  -0.00084   0.00685
    D6        3.13802  -0.00000   0.00353  -0.00010   0.00231   3.14033
    D7       -3.13181  -0.00004   0.00091  -0.00243  -0.00100  -3.13282
    D8       -0.00148  -0.00001   0.00338  -0.00012   0.00215   0.00066
    D9       -0.02562   0.00008   0.00514   0.00573   0.00737  -0.01825
   D10        3.12533   0.00004   0.00347   0.00324   0.00431   3.12964
   D11        3.12115   0.00010  -0.00028   0.00636   0.00410   3.12524
   D12       -0.01109   0.00006  -0.00194   0.00387   0.00104  -0.01005
   D13       -0.00762   0.00002   0.00093   0.00123   0.00148  -0.00614
   D14        3.12167   0.00006   0.00312   0.00408   0.00490   3.12657
   D15       -3.13796  -0.00001  -0.00154  -0.00108  -0.00171  -3.13967
   D16       -0.00867   0.00003   0.00065   0.00178   0.00171  -0.00696
   D17        0.02564  -0.00009  -0.00313  -0.00691  -0.00665   0.01898
   D18       -3.09272  -0.00014  -0.00490  -0.01027  -0.00968  -3.10240
   D19       -3.12587  -0.00005  -0.00145  -0.00427  -0.00349  -3.12935
   D20        0.03896  -0.00010  -0.00322  -0.00763  -0.00651   0.03245
   D21       -2.84666  -0.00030  -0.12129  -0.05090  -0.11778  -2.96444
   D22        0.27157  -0.00035  -0.07818  -0.06362  -0.09703   0.17453
   D23        0.30488  -0.00034  -0.12300  -0.05354  -0.12099   0.18389
   D24       -2.86007  -0.00039  -0.07990  -0.06626  -0.10024  -2.96032
   D25       -0.00943   0.00004   0.00014   0.00352   0.00241  -0.00703
   D26        3.10906   0.00009   0.00211   0.00683   0.00560   3.11466
   D27       -3.13877   0.00001  -0.00204   0.00067  -0.00099  -3.13976
   D28       -0.02028   0.00005  -0.00006   0.00398   0.00220  -0.01808
   D29       -3.13290  -0.00016   0.01625  -0.01125   0.00373  -3.12917
   D30        0.02796  -0.00027   0.02418  -0.02388   0.00069   0.02865
   D31        0.03463  -0.00013  -0.03120   0.00273  -0.01930   0.01532
   D32       -3.08770  -0.00024  -0.02327  -0.00990  -0.02234  -3.11004
   D33       -2.07598   0.00018  -6.20213   0.03753  -2.80748   1.39973
   D34        1.04273   0.00015  -6.15893   0.02504  -2.78711  -1.74438
   D35       -3.08888  -0.00026  -0.05816  -0.01418  -0.04974  -3.13861
   D36        0.05999  -0.00030  -0.07046  -0.00933  -0.05501   0.00498
   D37        0.03407  -0.00016  -0.06570  -0.00201  -0.04673  -0.01265
   D38       -3.10025  -0.00019  -0.07799   0.00284  -0.05200   3.13094
   D39       -3.10017   0.00033   6.18053   0.03268  -1.90433   1.27869
   D40       -3.13500  -0.00003  -0.00861   0.00513  -0.00255  -3.13755
   D41        0.00681  -0.00004  -0.00915   0.00347  -0.00398   0.00283
   D42       -0.00016   0.00000   0.00283   0.00063   0.00234   0.00219
   D43       -3.14154  -0.00000   0.00229  -0.00103   0.00092  -3.14062
   D44        3.13279   0.00007   0.01277  -0.00628   0.00471   3.13750
   D45       -0.01472   0.00004   0.00784  -0.00566   0.00170  -0.01302
   D46       -0.00152   0.00003   0.00050  -0.00142  -0.00057  -0.00209
   D47        3.13416   0.00000  -0.00444  -0.00081  -0.00358   3.13058
   D48        0.00239  -0.00003  -0.00405   0.00008  -0.00269  -0.00029
   D49       -3.14016  -0.00001  -0.00081  -0.00101  -0.00125  -3.14140
   D50       -3.13941  -0.00003  -0.00350   0.00175  -0.00125  -3.14067
   D51        0.00122  -0.00001  -0.00026   0.00066   0.00019   0.00141
   D52       -0.00293   0.00003   0.00186  -0.00003   0.00122  -0.00171
   D53        3.13849   0.00004   0.00342   0.00029   0.00252   3.14101
   D54        3.13962   0.00001  -0.00140   0.00107  -0.00023   3.13940
   D55       -0.00215   0.00002   0.00016   0.00139   0.00108  -0.00107
   D56        0.00097  -0.00003  -0.00262   0.00152  -0.00083   0.00014
   D57       -3.13726  -0.00008  -0.00753   0.00050  -0.00503   3.14089
   D58       -3.13471  -0.00001   0.00231   0.00090   0.00218  -3.13253
   D59        0.01024  -0.00005  -0.00260  -0.00011  -0.00203   0.00822
   D60        0.00128   0.00000   0.00143  -0.00077   0.00052   0.00180
   D61        3.13956   0.00005   0.00629   0.00023   0.00466  -3.13896
   D62       -3.14014  -0.00001  -0.00012  -0.00109  -0.00079  -3.14092
   D63       -0.00185   0.00004   0.00473  -0.00009   0.00335   0.00150
   D64        1.80446  -0.00049  -0.05884  -0.00855  -0.26389   1.54058
         Item               Value     Threshold  Converged?
 Maximum Force            0.004646     0.000450     NO 
 RMS     Force            0.000539     0.000300     NO 
 Maximum Displacement     ********     0.001800     NO 
 RMS     Displacement     1.401661     0.001200     NO 
 Predicted change in Energy=-2.089751D+01
 GradGradGradGradGradGradGradGradGradGradGradGradGradGradGradGradGradGrad

                          Input orientation:                          
 ---------------------------------------------------------------------
 Center     Atomic      Atomic             Coordinates (Angstroms)
 Number     Number       Type             X           Y           Z
 ---------------------------------------------------------------------
      1          6           0       -5.430108   -0.932946   -0.569149
      2          6           0       -4.189998   -0.327497   -0.326467
      3          6           0       -5.599520   -2.313479   -0.358879
      4          1           0       -6.265200   -0.325260   -0.921104
      5          6           0       -3.085030   -1.085430    0.125874
      6          1           0       -4.064113    0.749577   -0.488582
      7          6           0       -4.518325   -3.079629    0.104264
      8          6           0       -3.280304   -2.475547    0.347501
      9          1           0       -6.565100   -2.789220   -0.545774
     10          1           0       -4.645062   -4.153723    0.284465
     11          1           0       -2.465445   -3.089482    0.730918
     12          6           0       -1.805710   -0.378380    0.344733
     13          6           0       -0.601955   -0.960098    0.586259
     14          1           0       -1.937558    0.709043    0.286333
     15          6           0        0.717040   -0.340747    0.829374
     16          1           0       -0.564731   -2.056006    0.596100
     17          6           0        1.820420   -1.211133    1.052705
     18          6           0        3.112599   -0.718441    1.297434
     19          1           0        1.653670   -2.293441    1.033642
     20          6           0        0.960380    1.057933    0.858139
     21          6           0        3.334384    0.668205    1.324589
     22          1           0        3.943815   -1.414863    1.465949
     23          6           0        2.254048    1.549189    1.103094
     24          1           0        4.338583    1.063085    1.515202
     25          1           0        0.135868    1.759498    0.679923
     26          1           0        2.441954    2.627733    1.124654
     27          8           0       -2.219538    2.955245    0.191721
     28          8           0        2.087354    3.336459    3.443685
     29          1           0        5.057002    3.428585    0.566406
 ---------------------------------------------------------------------
                    Distance matrix (angstroms):
                    1          2          3          4          5
     1  C    0.000000
     2  C    1.401191   0.000000
     3  C    1.406693   2.435555   0.000000
     4  H    1.091115   2.158717   2.170769   0.000000
     5  C    2.450653   1.414224   2.840026   3.433293   0.000000
     6  H    2.168714   1.096457   3.428792   2.487395   2.168735
     7  C    2.427567   2.804917   1.403735   3.418991   2.455938
     8  C    2.800271   2.428146   2.429815   3.891361   1.421152
     9  H    2.175892   3.427723   1.092522   2.510361   3.932543
    10  H    3.423208   3.901324   2.170571   4.328437   3.445761
    11  H    3.889736   3.423552   3.407678   4.980786   2.183160
    12  C    3.778754   2.477484   4.316558   4.635969   1.477999
    13  C    4.964551   3.755970   5.263134   5.894701   2.528502
    14  H    3.952959   2.554100   4.791858   4.610441   2.136018
    15  C    6.331982   5.041346   6.723284   7.198339   3.937664
    16  H    5.127472   4.120854   5.131022   6.147580   2.741357
    17  C    7.434915   6.229611   7.633037   8.370062   4.993822
    18  C    8.746885   7.491183   9.010469   9.644668   6.318057
    19  H    7.389168   6.313738   7.385681   8.390665   4.973793
    20  C    6.843909   5.463433   7.475282   7.568879   4.636331
    21  C    9.108581   7.767479   9.567609   9.908689   6.761733
    22  H    9.604390   8.399645   9.757703  10.540837   7.163030
    23  C    8.246433   6.862312   8.873337   8.954805   6.033402
    24  H   10.186068   8.835279  10.662048  10.968286   7.852158
    25  H    6.307894   4.907289   7.110762   6.919767   4.332987
    26  H    8.804360   7.404182   9.554148   9.419119   6.732956
    27  O    5.099481   3.863628   6.283859   5.326112   4.132852
    28  O    9.531154   8.188026  10.269826  10.110624   7.570636
    29  H   11.414549  10.020599  12.140384  12.020661   9.320038
                    6          7          8          9         10
     6  H    0.000000
     7  C    3.901359   0.000000
     8  C    3.422692   1.398848   0.000000
     9  H    4.333739   2.167066   3.418510   0.000000
    10  H    4.997745   1.096454   2.163980   2.497541   0.000000
    11  H    4.333740   2.146418   1.089918   4.304331   2.466304
    12  C    2.658399   3.835734   2.563698   5.408969   4.724274
    13  C    4.008093   4.479139   3.086607   6.339265   5.161108
    14  H    2.263708   4.587761   3.456635   5.860409   5.565705
    15  C    5.077917   5.952840   4.557229   7.804845   6.602109
    16  H    4.614489   4.113468   2.759014   6.151903   4.598547
    17  C    6.391219   6.676115   5.302211   8.681154   7.145032
    18  C    7.539903   8.076501   6.697687  10.066946   8.544506
    19  H    6.653583   6.290895   4.984783   8.383826   6.610291
    20  C    5.210976   6.906806   5.543432   8.567637   7.675379
    21  C    7.617871   8.786381   7.388639  10.651377   9.381066
    22  H    8.522436   8.731177   7.386737  10.787641   9.092088
    23  C    6.564448   8.263696   6.884656   9.965839   8.988386
    24  H    8.644000   9.879153   8.481326  11.746411  10.461151
    25  H    4.474951   6.738698   5.451270   8.191223   7.614451
    26  H    6.961243   9.058734   7.706599  10.642402   9.844788
    27  O    2.954698   6.458465   5.535611   7.240627   7.511936
    28  O    7.745659   9.795556   8.495736  11.327166  10.555042
    29  H    9.564770  11.586947  10.218482  13.227672  12.316694
                   11         12         13         14         15
    11  H    0.000000
    12  C    2.816818   0.000000
    13  C    2.833337   1.358586   0.000000
    14  H    3.860715   1.096943   2.158662   0.000000
    15  C    4.206358   2.569156   1.477311   2.905829   0.000000
    16  H    2.167710   2.101819   1.096584   3.102597   2.153942
    17  C    4.690457   3.787284   2.479615   4.289150   1.422989
    18  C    6.087476   5.021260   3.789734   5.344542   2.469906
    19  H    4.206238   4.013647   2.658157   4.740285   2.175319
    20  C    5.380848   3.158771   2.566566   2.974346   1.419982
    21  C    6.936186   5.336293   4.323340   5.373361   2.848458
    22  H    6.665076   5.948821   4.652386   6.363413   3.459918
    23  C    6.627926   4.557661   3.836717   4.352299   2.451362
    24  H    8.009602   6.418735   5.418960   6.405108   3.944196
    25  H    5.502912   2.907335   2.819460   2.357427   2.184290
    26  H    7.544809   5.261904   4.735798   4.854305   3.445924
    27  O    6.073708   3.362695   4.254662   2.265808   4.460230
    28  O    8.329454   6.209628   5.818734   5.750835   4.715319
    29  H    9.954873   7.851047   7.161336   7.509875   5.754328
                   16         17         18         19         20
    16  H    0.000000
    17  C    2.571234   0.000000
    18  C    3.975388   1.404409   0.000000
    19  H    2.273570   1.095243   2.163027   0.000000
    20  C    3.477247   2.434376   2.824983   3.426829   0.000000
    21  C    4.811977   2.428564   1.404533   3.417718   2.450583
    22  H    4.636237   2.172805   1.097416   2.490693   3.922377
    23  C    4.604345   2.794629   2.432493   3.889869   1.405316
    24  H    5.883533   3.424488   2.173544   4.325150   3.441513
    25  H    3.880198   3.435307   3.922044   4.342252   1.097166
    26  H    5.590790   3.889521   3.417089   4.984739   2.174939
    27  O    5.292877   5.866964   6.568886   6.577178   3.762418
    28  O    6.649885   5.144768   4.701035   6.139394   3.625851
    29  H    7.854012   5.677935   4.638204   6.674021   4.742090
                   21         22         23         24         25
    21  C    0.000000
    22  H    2.174986   0.000000
    23  C    1.411494   3.431119   0.000000
    24  H    1.095755   2.509681   2.179774   0.000000
    25  H    3.440496   5.019449   2.170251   4.341139   0.000000
    26  H    2.162441   4.326044   1.095002   2.489549   2.503926
    27  O    6.112282   7.662142   4.777088   6.952756   2.686278
    28  O    3.628392   5.471102   2.949659   3.735680   3.732758
    29  H    3.340951   5.050481   3.417121   2.648005   5.197721
                   26         27         28         29
    26  H    0.000000
    27  O    4.765200   0.000000
    28  O    2.450702   5.410168   0.000000
    29  H    2.791323   7.301540   4.135944   0.000000
 Stoichiometry    C14H13O2(2)
 Framework group  C1[X(C14H13O2)]
 Deg. of freedom    81
 Full point group                 C1      NOp   1
 Largest Abelian subgroup         C1      NOp   1
 Largest concise Abelian subgroup C1      NOp   1
                         Standard orientation:                         
 ---------------------------------------------------------------------
 Center     Atomic      Atomic             Coordinates (Angstroms)
 Number     Number       Type             X           Y           Z
 ---------------------------------------------------------------------
      1          6           0       -4.597071    0.990469   -0.201778
      2          6           0       -3.201055    1.076544   -0.285842
      3          6           0       -5.212178   -0.213955    0.185252
      4          1           0       -5.204666    1.865668   -0.437125
      5          6           0       -2.383104   -0.039187    0.007638
      6          1           0       -2.726367    2.018679   -0.584621
      7          6           0       -4.416160   -1.327899    0.495014
      8          6           0       -3.022401   -1.242271    0.412066
      9          1           0       -6.300274   -0.284922    0.253176
     10          1           0       -4.886329   -2.266596    0.811242
     11          1           0       -2.428050   -2.114821    0.682852
     12          6           0       -0.919690    0.125066   -0.118537
     13          6           0        0.003663   -0.870299   -0.069303
     14          1           0       -0.649063    1.178038   -0.264461
     15          6           0        1.475897   -0.801758   -0.170678
     16          1           0       -0.366462   -1.895640    0.049781
     17          6           0        2.197828   -2.025201   -0.087606
     18          6           0        3.599400   -2.063173   -0.168346
     19          1           0        1.642552   -2.960042    0.043915
     20          6           0        2.219496    0.395712   -0.342362
     21          6           0        4.318777   -0.868541   -0.335870
     22          1           0        4.128235   -3.022412   -0.101146
     23          6           0        3.621928    0.355845   -0.423035
     24          1           0        5.412529   -0.886978   -0.399485
     25          1           0        1.696355    1.356921   -0.420929
     26          1           0        4.195420    1.279119   -0.556082
     27          8           0       -0.092700    3.357304   -0.538592
     28          8           0        4.675015    2.115779    1.696900
     29          1           0        6.715617    1.000217   -1.723261
 ---------------------------------------------------------------------
 Rotational constants (GHZ):           0.8993949           0.2068018           0.1761796
 Standard basis: 6-31G(d) (6D, 7F)
 There are   266 symmetry adapted cartesian basis functions of A   symmetry.
 There are   266 symmetry adapted basis functions of A   symmetry.
   266 basis functions,   500 primitive gaussians,   266 cartesian basis functions
    57 alpha electrons       56 beta electrons
       nuclear repulsion energy       898.3740938610 Hartrees.
 NAtoms=   29 NActive=   29 NUniq=   29 SFac= 1.00D+00 NAtFMM=   60 NAOKFM=F Big=F
 Integral buffers will be    131072 words long.
 Raffenetti 2 integral format.
 Two-electron integral symmetry is turned on.
 One-electron integrals computed using PRISM.
 NBasis=   266 RedAO= T EigKep=  4.79D-04  NBF=   266
 NBsUse=   266 1.00D-06 EigRej= -1.00D+00 NBFU=   266
 Initial guess from the checkpoint file:  "/scratch/dinius.ab/QMscratch/Gau-42150.chk"
 B after Tr=     0.000000   -0.000000    0.000000
         Rot=    0.988626   -0.054727   -0.046919    0.131991 Ang= -17.30 deg.
 Initial guess <Sx>= 0.0000 <Sy>= 0.0000 <Sz>= 0.5000 <S**2>= 0.7534 S= 0.5017
 ExpMin= 1.61D-01 ExpMax= 5.48D+03 ExpMxC= 8.25D+02 IAcc=2 IRadAn=         4 AccDes= 0.00D+00
 Harris functional with IExCor=  402 and IRadAn=       4 diagonalized for initial guess.
 HarFok:  IExCor=  402 AccDes= 0.00D+00 IRadAn=         4 IDoV= 1 UseB2=F ITyADJ=14
 ICtDFT=  3500011 ScaDFX=  1.000000  1.000000  1.000000  1.000000
 FoFCou: FMM=F IPFlag=           0 FMFlag=      100000 FMFlg1=           0
         NFxFlg=           0 DoJE=T BraDBF=F KetDBF=T FulRan=T
         wScrn=  0.000000 ICntrl=       500 IOpCl=  0 I1Cent=   200000004 NGrid=           0
         NMat0=    1 NMatS0=      1 NMatT0=    0 NMatD0=    1 NMtDS0=    0 NMtDT0=    0
 Petite list used in FoFCou.
 Requested convergence on RMS density matrix=1.00D-08 within 128 cycles.
 Requested convergence on MAX density matrix=1.00D-06.
 Requested convergence on             energy=1.00D-06.
 No special actions if energy rises.
 Integral accuracy reduced to 1.0D-05 until final iterations.
 Restarting incremental Fock formation.
 Problem detected with inexpensive integrals.
 Switching to full accuracy and repeating last cycle.
 Restarting incremental Fock formation.
 Restarting incremental Fock formation.
 Restarting incremental Fock formation.
 Restarting incremental Fock formation.
 Restarting incremental Fock formation.
 >>>>>>>>>> Convergence criterion not met.
 SCF Done:  E(UB3LYP) =  -691.307776523     A.U. after  129 cycles
            NFock=128  Conv=0.87D-04     -V/T= 2.0104
 <Sx>= 0.0000 <Sy>= 0.0000 <Sz>= 0.5000 <S**2>= 2.7556 S= 1.2337
 <L.S>= 0.000000000000E+00
 Annihilation of the first spin contaminant:
 S**2 before annihilation     2.7556,   after     3.6595
 Convergence failure -- run terminated.
 Error termination via Lnk1e in /shared/centos7/gaussian/g16/l502.exe at Mon Oct 15 20:32:27 2018.
 Job cpu time:       0 days  3 hours 15 minutes 19.7 seconds.
 Elapsed time:       0 days  3 hours 15 minutes 30.8 seconds.
 File lengths (MBytes):  RWF=    304 Int=      0 D2E=      0 Chk=     32 Scr=     32
