 Entering Gaussian System, Link 0=g16
 Input=nateC=O=C.com
 Output=nateC=O=C.log
 Initial command:
 /shared/centos7/gaussian/g16/l1.exe "/scratch/dinius.ab/QMscratch/Gau-24741.inp" -scrdir="/scratch/dinius.ab/QMscratch/"
 Default is to use a total of  20 processors:
                               20 via shared-memory
                                1 via Linda
 Entering Link 1 = /shared/centos7/gaussian/g16/l1.exe PID=     24742.
  
 Copyright (c) 1988,1990,1992,1993,1995,1998,2003,2009,2016,
            Gaussian, Inc.  All Rights Reserved.
  
 This is part of the Gaussian(R) 16 program.  It is based on
 the Gaussian(R) 09 system (copyright 2009, Gaussian, Inc.),
 the Gaussian(R) 03 system (copyright 2003, Gaussian, Inc.),
 the Gaussian(R) 98 system (copyright 1998, Gaussian, Inc.),
 the Gaussian(R) 94 system (copyright 1995, Gaussian, Inc.),
 the Gaussian 92(TM) system (copyright 1992, Gaussian, Inc.),
 the Gaussian 90(TM) system (copyright 1990, Gaussian, Inc.),
 the Gaussian 88(TM) system (copyright 1988, Gaussian, Inc.),
 the Gaussian 86(TM) system (copyright 1986, Carnegie Mellon
 University), and the Gaussian 82(TM) system (copyright 1983,
 Carnegie Mellon University). Gaussian is a federally registered
 trademark of Gaussian, Inc.
  
 This software contains proprietary and confidential information,
 including trade secrets, belonging to Gaussian, Inc.
  
 This software is provided under written license and may be
 used, copied, transmitted, or stored only in accord with that
 written license.
  
 The following legend is applicable only to US Government
 contracts under FAR:
  
                    RESTRICTED RIGHTS LEGEND
  
 Use, reproduction and disclosure by the US Government is
 subject to restrictions as set forth in subparagraphs (a)
 and (c) of the Commercial Computer Software - Restricted
 Rights clause in FAR 52.227-19.
  
 Gaussian, Inc.
 340 Quinnipiac St., Bldg. 40, Wallingford CT 06492
  
  
 ---------------------------------------------------------------
 Warning -- This program may not be used in any manner that
 competes with the business of Gaussian, Inc. or will provide
 assistance to any competitor of Gaussian, Inc.  The licensee
 of this program is prohibited from giving any competitor of
 Gaussian, Inc. access to this program.  By using this program,
 the user acknowledges that Gaussian, Inc. is engaged in the
 business of creating and licensing software in the field of
 computational chemistry and represents and warrants to the
 licensee that it is not a competitor of Gaussian, Inc. and that
 it will not use this program in any manner prohibited above.
 ---------------------------------------------------------------
  

 Cite this work as:
 Gaussian 16, Revision A.03,
 M. J. Frisch, G. W. Trucks, H. B. Schlegel, G. E. Scuseria, 
 M. A. Robb, J. R. Cheeseman, G. Scalmani, V. Barone, 
 G. A. Petersson, H. Nakatsuji, X. Li, M. Caricato, A. V. Marenich, 
 J. Bloino, B. G. Janesko, R. Gomperts, B. Mennucci, H. P. Hratchian, 
 J. V. Ortiz, A. F. Izmaylov, J. L. Sonnenberg, D. Williams-Young, 
 F. Ding, F. Lipparini, F. Egidi, J. Goings, B. Peng, A. Petrone, 
 T. Henderson, D. Ranasinghe, V. G. Zakrzewski, J. Gao, N. Rega, 
 G. Zheng, W. Liang, M. Hada, M. Ehara, K. Toyota, R. Fukuda, 
 J. Hasegawa, M. Ishida, T. Nakajima, Y. Honda, O. Kitao, H. Nakai, 
 T. Vreven, K. Throssell, J. A. Montgomery, Jr., J. E. Peralta, 
 F. Ogliaro, M. J. Bearpark, J. J. Heyd, E. N. Brothers, K. N. Kudin, 
 V. N. Staroverov, T. A. Keith, R. Kobayashi, J. Normand, 
 K. Raghavachari, A. P. Rendell, J. C. Burant, S. S. Iyengar, 
 J. Tomasi, M. Cossi, J. M. Millam, M. Klene, C. Adamo, R. Cammi, 
 J. W. Ochterski, R. L. Martin, K. Morokuma, O. Farkas, 
 J. B. Foresman, and D. J. Fox, Gaussian, Inc., Wallingford CT, 2016.
 
 ******************************************
 Gaussian 16:  EM64L-G16RevA.03 25-Dec-2016
                29-Mar-2019 
 ******************************************
 ----------------------------------------------------------------------
 #m062x/cc-pVTZ Opt=(calcfc,verytight,gdiis,maxcycles=900) freq IOP(2/1
 6=3) scf=(maxcycle=900)
 ----------------------------------------------------------------------

 Warning!  Use of Opt=GDIIS is deprecated since it is seldom a good choice.

 1/6=900,7=1,10=4,18=20,19=11,26=3,38=1/1,3;
 2/9=110,12=2,16=3,17=6,18=5,40=1/2;
 3/5=16,6=1,11=2,25=1,30=1,71=2,74=-55,140=1/1,2,3;
 4//1;
 5/5=2,7=900,38=5/2;
 8/6=4,10=90,11=11/1;
 11/6=1,8=1,9=11,15=111,16=1/1,2,10;
 10/6=1,13=1/2;
 6/7=2,8=2,9=2,10=2,28=1/1;
 7/10=1,18=20,25=1/1,2,3,16;
 1/6=900,7=1,10=4,18=20,19=11,26=3/3(2);
 2/9=110,16=3/2;
 99//99;
 2/9=110,16=3/2;
 3/5=16,6=1,11=2,25=1,30=1,71=1,74=-55/1,2,3;
 4/5=5,16=3,69=1/1;
 5/5=2,7=900,38=5/2;
 7//1,2,3,16;
 1/6=900,7=1,18=20,19=11,26=3/3(-5);
 2/9=110,16=3/2;
 6/7=2,8=2,9=2,10=2,19=2,28=1/1;
 99/9=1/99;
 -----
 Title
 -----
 Symbolic Z-matrix:
 Charge =  0 Multiplicity = 2
 C                    -4.84844   0.33639   0.02468 
 O                    -4.00267   1.13662   0.65378 
 H                    -5.72466   0.03147   0.60353 
 H                    -4.65282   0.02154  -1.00362 
 C                    -2.93801   1.51265  -0.03657 
 H                    -2.24551   2.1736    0.492 
 H                    -2.79273   1.16681  -1.06325 
 

 GradGradGradGradGradGradGradGradGradGradGradGradGradGradGradGradGradGrad
 Berny optimization.
 Initialization pass.
                           ----------------------------
                           !    Initial Parameters    !
                           ! (Angstroms and Degrees)  !
 --------------------------                            --------------------------
 ! Name  Definition              Value          Derivative Info.                !
 --------------------------------------------------------------------------------
 ! R1    R(1,2)                  1.3234         calculate D2E/DX2 analytically  !
 ! R2    R(1,3)                  1.0935         calculate D2E/DX2 analytically  !
 ! R3    R(1,4)                  1.0931         calculate D2E/DX2 analytically  !
 ! R4    R(2,5)                  1.3234         calculate D2E/DX2 analytically  !
 ! R5    R(5,6)                  1.0935         calculate D2E/DX2 analytically  !
 ! R6    R(5,7)                  1.0931         calculate D2E/DX2 analytically  !
 ! A1    A(2,1,3)              115.4076         calculate D2E/DX2 analytically  !
 ! A2    A(2,1,4)              120.4634         calculate D2E/DX2 analytically  !
 ! A3    A(3,1,4)              124.129          calculate D2E/DX2 analytically  !
 ! A4    A(1,2,5)              115.9736         calculate D2E/DX2 analytically  !
 ! A5    A(2,5,6)              115.4069         calculate D2E/DX2 analytically  !
 ! A6    A(2,5,7)              120.4629         calculate D2E/DX2 analytically  !
 ! A7    A(6,5,7)              124.1302         calculate D2E/DX2 analytically  !
 ! D1    D(3,1,2,5)           -179.9999         calculate D2E/DX2 analytically  !
 ! D2    D(4,1,2,5)              0.0003         calculate D2E/DX2 analytically  !
 ! D3    D(2,1,3,4)           -179.9997         calculate D2E/DX2 analytically  !
 ! D4    D(1,2,5,6)           -179.9999         calculate D2E/DX2 analytically  !
 ! D5    D(1,2,5,7)             -0.0002         calculate D2E/DX2 analytically  !
 ! D6    D(2,5,6,7)            179.9997         calculate D2E/DX2 analytically  !
 --------------------------------------------------------------------------------
 Trust Radius=3.00D-01 FncErr=1.00D-07 GrdErr=1.00D-06 EigMax=2.50D+02 EigMin=1.00D-04
 Number of steps in this run=    100 maximum allowed number of steps=    100.
 GradGradGradGradGradGradGradGradGradGradGradGradGradGradGradGradGradGrad

                          Input orientation:                          
 ---------------------------------------------------------------------
 Center     Atomic      Atomic             Coordinates (Angstroms)
 Number     Number       Type             X           Y           Z
 ---------------------------------------------------------------------
      1          6           0       -4.848440    0.336390    0.024680
      2          8           0       -4.002670    1.136620    0.653780
      3          1           0       -5.724660    0.031470    0.603530
      4          1           0       -4.652820    0.021540   -1.003620
      5          6           0       -2.938010    1.512650   -0.036570
      6          1           0       -2.245510    2.173600    0.492000
      7          1           0       -2.792730    1.166810   -1.063250
 ---------------------------------------------------------------------
                    Distance matrix (angstroms):
                    1          2          3          4          5
     1  C    0.000000
     2  O    1.323428   0.000000
     3  H    1.093529   2.046737   0.000000
     4  H    1.093068   2.100732   1.931805   0.000000
     5  C    2.244344   1.323436   3.220099   2.469649   0.000000
     6  H    3.220089   2.046732   4.087254   3.558565   1.093525
     7  H    2.469642   2.100728   3.558562   2.185208   1.093061
                    6          7
     6  H    0.000000
     7  H    1.931807   0.000000
 Stoichiometry    C2H4O(2)
 Framework group  C1[X(C2H4O)]
 Deg. of freedom    15
 Full point group                 C1      NOp   1
 Largest Abelian subgroup         C1      NOp   1
 Largest concise Abelian subgroup C1      NOp   1
                         Standard orientation:                         
 ---------------------------------------------------------------------
 Center     Atomic      Atomic             Coordinates (Angstroms)
 Number     Number       Type             X           Y           Z
 ---------------------------------------------------------------------
      1          6           0       -1.122170   -0.191870   -0.000001
      2          8           0       -0.000002    0.509700    0.000001
      3          1           0       -2.043631    0.396955   -0.000001
      4          1           0       -1.092605   -1.284538    0.000003
      5          6           0        1.122174   -0.191872   -0.000001
      6          1           0        2.043623    0.396966    0.000002
      7          1           0        1.092603   -1.284533    0.000001
 ---------------------------------------------------------------------
 Rotational constants (GHZ):          58.6818342          12.3122259          10.1769640
 Standard basis: CC-pVTZ (5D, 7F)
 The combination of multiplicity 2 and    24 electrons is impossible.
 Error termination via Lnk1e in /shared/centos7/gaussian/g16/l301.exe at Fri Mar 29 11:36:48 2019.
 Job cpu time:       0 days  0 hours  0 minutes 31.2 seconds.
 Elapsed time:       0 days  0 hours  0 minutes  1.7 seconds.
 File lengths (MBytes):  RWF=    272 Int=      0 D2E=      0 Chk=     32 Scr=     32
