 Entering Gaussian System, Link 0=g16
 Input=nate[CH3].com
 Output=nate[CH3].log
 Initial command:
 /shared/centos7/gaussian/g16/l1.exe "/scratch/dinius.ab/QMscratch/Gau-418500.inp" -scrdir="/scratch/dinius.ab/QMscratch/"
 Default is to use a total of  20 processors:
                               20 via shared-memory
                                1 via Linda
 Entering Link 1 = /shared/centos7/gaussian/g16/l1.exe PID=    418501.
  
 Copyright (c) 1988,1990,1992,1993,1995,1998,2003,2009,2016,
            Gaussian, Inc.  All Rights Reserved.
  
 This is part of the Gaussian(R) 16 program.  It is based on
 the Gaussian(R) 09 system (copyright 2009, Gaussian, Inc.),
 the Gaussian(R) 03 system (copyright 2003, Gaussian, Inc.),
 the Gaussian(R) 98 system (copyright 1998, Gaussian, Inc.),
 the Gaussian(R) 94 system (copyright 1995, Gaussian, Inc.),
 the Gaussian 92(TM) system (copyright 1992, Gaussian, Inc.),
 the Gaussian 90(TM) system (copyright 1990, Gaussian, Inc.),
 the Gaussian 88(TM) system (copyright 1988, Gaussian, Inc.),
 the Gaussian 86(TM) system (copyright 1986, Carnegie Mellon
 University), and the Gaussian 82(TM) system (copyright 1983,
 Carnegie Mellon University). Gaussian is a federally registered
 trademark of Gaussian, Inc.
  
 This software contains proprietary and confidential information,
 including trade secrets, belonging to Gaussian, Inc.
  
 This software is provided under written license and may be
 used, copied, transmitted, or stored only in accord with that
 written license.
  
 The following legend is applicable only to US Government
 contracts under FAR:
  
                    RESTRICTED RIGHTS LEGEND
  
 Use, reproduction and disclosure by the US Government is
 subject to restrictions as set forth in subparagraphs (a)
 and (c) of the Commercial Computer Software - Restricted
 Rights clause in FAR 52.227-19.
  
 Gaussian, Inc.
 340 Quinnipiac St., Bldg. 40, Wallingford CT 06492
  
  
 ---------------------------------------------------------------
 Warning -- This program may not be used in any manner that
 competes with the business of Gaussian, Inc. or will provide
 assistance to any competitor of Gaussian, Inc.  The licensee
 of this program is prohibited from giving any competitor of
 Gaussian, Inc. access to this program.  By using this program,
 the user acknowledges that Gaussian, Inc. is engaged in the
 business of creating and licensing software in the field of
 computational chemistry and represents and warrants to the
 licensee that it is not a competitor of Gaussian, Inc. and that
 it will not use this program in any manner prohibited above.
 ---------------------------------------------------------------
  

 Cite this work as:
 Gaussian 16, Revision A.03,
 M. J. Frisch, G. W. Trucks, H. B. Schlegel, G. E. Scuseria, 
 M. A. Robb, J. R. Cheeseman, G. Scalmani, V. Barone, 
 G. A. Petersson, H. Nakatsuji, X. Li, M. Caricato, A. V. Marenich, 
 J. Bloino, B. G. Janesko, R. Gomperts, B. Mennucci, H. P. Hratchian, 
 J. V. Ortiz, A. F. Izmaylov, J. L. Sonnenberg, D. Williams-Young, 
 F. Ding, F. Lipparini, F. Egidi, J. Goings, B. Peng, A. Petrone, 
 T. Henderson, D. Ranasinghe, V. G. Zakrzewski, J. Gao, N. Rega, 
 G. Zheng, W. Liang, M. Hada, M. Ehara, K. Toyota, R. Fukuda, 
 J. Hasegawa, M. Ishida, T. Nakajima, Y. Honda, O. Kitao, H. Nakai, 
 T. Vreven, K. Throssell, J. A. Montgomery, Jr., J. E. Peralta, 
 F. Ogliaro, M. J. Bearpark, J. J. Heyd, E. N. Brothers, K. N. Kudin, 
 V. N. Staroverov, T. A. Keith, R. Kobayashi, J. Normand, 
 K. Raghavachari, A. P. Rendell, J. C. Burant, S. S. Iyengar, 
 J. Tomasi, M. Cossi, J. M. Millam, M. Klene, C. Adamo, R. Cammi, 
 J. W. Ochterski, R. L. Martin, K. Morokuma, O. Farkas, 
 J. B. Foresman, and D. J. Fox, Gaussian, Inc., Wallingford CT, 2016.
 
 ******************************************
 Gaussian 16:  EM64L-G16RevA.03 25-Dec-2016
                29-Mar-2019 
 ******************************************
 ----------------------------------------------------------------------
 #m062x/cc-pVTZ Opt=(calcfc,verytight,gdiis,maxcycles=900) freq IOP(2/1
 6=3) scf=(maxcycle=900)
 ----------------------------------------------------------------------

 Warning!  Use of Opt=GDIIS is deprecated since it is seldom a good choice.

 1/6=900,7=1,10=4,18=20,19=11,26=3,38=1/1,3;
 2/9=110,12=2,16=3,17=6,18=5,40=1/2;
 3/5=16,6=1,11=2,25=1,30=1,71=2,74=-55,140=1/1,2,3;
 4//1;
 5/5=2,7=900,38=5/2;
 8/6=4,10=90,11=11/1;
 11/6=1,8=1,9=11,15=111,16=1/1,2,10;
 10/6=1,13=1/2;
 6/7=2,8=2,9=2,10=2,28=1/1;
 7/10=1,18=20,25=1/1,2,3,16;
 1/6=900,7=1,10=4,18=20,19=11,26=3/3(2);
 2/9=110,16=3/2;
 99//99;
 2/9=110,16=3/2;
 3/5=16,6=1,11=2,25=1,30=1,71=1,74=-55/1,2,3;
 4/5=5,16=3,69=1/1;
 5/5=2,7=900,38=5/2;
 7//1,2,3,16;
 1/6=900,7=1,18=20,19=11,26=3/3(-5);
 2/9=110,16=3/2;
 6/7=2,8=2,9=2,10=2,19=2,28=1/1;
 99/9=1/99;
 -----
 Title
 -----
 Symbolic Z-matrix:
 Charge =  0 Multiplicity = 2
 C                     2.58102   2.69301  -2.16484 
 H                     2.80178   3.04361  -3.17233 
 H                     3.4619    2.07988  -2.17157 
 H                     1.68533   3.28697  -2.23511 
 

 GradGradGradGradGradGradGradGradGradGradGradGradGradGradGradGradGradGrad
 Berny optimization.
 Initialization pass.
                           ----------------------------
                           !    Initial Parameters    !
                           ! (Angstroms and Degrees)  !
 --------------------------                            --------------------------
 ! Name  Definition              Value          Derivative Info.                !
 --------------------------------------------------------------------------------
 ! R1    R(1,2)                  1.0894         calculate D2E/DX2 analytically  !
 ! R2    R(1,3)                  1.0733         calculate D2E/DX2 analytically  !
 ! R3    R(1,4)                  1.077          calculate D2E/DX2 analytically  !
 ! A1    A(2,1,3)               90.6724         calculate D2E/DX2 analytically  !
 ! A2    A(2,1,4)               86.0263         calculate D2E/DX2 analytically  !
 ! A3    L(3,1,4,2,-1)         176.6986         calculate D2E/DX2 analytically  !
 ! A4    L(3,1,4,2,-2)         177.2452         calculate D2E/DX2 analytically  !
 ! D1    D(2,1,4,3)             39.8846         calculate D2E/DX2 analytically  !
 --------------------------------------------------------------------------------
 Trust Radius=3.00D-01 FncErr=1.00D-07 GrdErr=1.00D-06 EigMax=2.50D+02 EigMin=1.00D-04
 Number of steps in this run=    100 maximum allowed number of steps=    100.
 GradGradGradGradGradGradGradGradGradGradGradGradGradGradGradGradGradGrad

                          Input orientation:                          
 ---------------------------------------------------------------------
 Center     Atomic      Atomic             Coordinates (Angstroms)
 Number     Number       Type             X           Y           Z
 ---------------------------------------------------------------------
      1          6           0        2.581020    2.693010   -2.164840
      2          1           0        2.801780    3.043610   -3.172330
      3          1           0        3.461900    2.079880   -2.171570
      4          1           0        1.685330    3.286970   -2.235110
 ---------------------------------------------------------------------
                    Distance matrix (angstroms):
                    1          2          3          4
     1  C    0.000000
     2  H    1.089354   0.000000
     3  H    1.073277   1.538198   0.000000
     4  H    1.077027   1.477859   2.148791   0.000000
 Stoichiometry    CH3(2)
 Framework group  C1[X(CH3)]
 Deg. of freedom     6
 Full point group                 C1      NOp   1
 Largest Abelian subgroup         C1      NOp   1
 Largest concise Abelian subgroup C1      NOp   1
                         Standard orientation:                         
 ---------------------------------------------------------------------
 Center     Atomic      Atomic             Coordinates (Angstroms)
 Number     Number       Type             X           Y           Z
 ---------------------------------------------------------------------
      1          6           0       -0.009557   -0.127546   -0.006351
      2          1           0        0.070660    0.958837   -0.001111
      3          1           0       -1.080468   -0.061226    0.019621
      4          1           0        1.067147   -0.132332    0.019598
 ---------------------------------------------------------------------
 Rotational constants (GHZ):         456.9506647         216.7757447         147.1258645
 Standard basis: CC-pVTZ (5D, 7F)
 There are    80 symmetry adapted cartesian basis functions of A   symmetry.
 There are    72 symmetry adapted basis functions of A   symmetry.
    72 basis functions,   103 primitive gaussians,    80 cartesian basis functions
     5 alpha electrons        4 beta electrons
       nuclear repulsion energy         9.7692698783 Hartrees.
 NAtoms=    4 NActive=    4 NUniq=    4 SFac= 1.00D+00 NAtFMM=   60 NAOKFM=F Big=F
 Integral buffers will be    131072 words long.
 Raffenetti 2 integral format.
 Two-electron integral symmetry is turned on.
 One-electron integrals computed using PRISM.
 NBasis=    72 RedAO= T EigKep=  1.38D-03  NBF=    72
 NBsUse=    72 1.00D-06 EigRej= -1.00D+00 NBFU=    72
 ExpMin= 1.03D-01 ExpMax= 8.24D+03 ExpMxC= 2.81D+02 IAcc=3 IRadAn=         5 AccDes= 0.00D+00
 Harris functional with IExCor= 1009 and IRadAn=       5 diagonalized for initial guess.
 HarFok:  IExCor= 1009 AccDes= 0.00D+00 IRadAn=         5 IDoV= 1 UseB2=F ITyADJ=14
 ICtDFT=  3500011 ScaDFX=  1.000000  1.000000  1.000000  1.000000
 FoFCou: FMM=F IPFlag=           0 FMFlag=      100000 FMFlg1=           0
         NFxFlg=           0 DoJE=T BraDBF=F KetDBF=T FulRan=T
         wScrn=  0.000000 ICntrl=       500 IOpCl=  0 I1Cent=   200000004 NGrid=           0
         NMat0=    1 NMatS0=      1 NMatT0=    0 NMatD0=    1 NMtDS0=    0 NMtDT0=    0
 Petite list used in FoFCou.
 Initial guess <Sx>= 0.0000 <Sy>= 0.0000 <Sz>= 0.5000 <S**2>= 0.7500 S= 0.5000
 Keep R1 and R2 ints in memory in canonical form, NReq=25013556.
 Requested convergence on RMS density matrix=1.00D-08 within 900 cycles.
 Requested convergence on MAX density matrix=1.00D-06.
 Requested convergence on             energy=1.00D-06.
 No special actions if energy rises.
 Integral accuracy reduced to 1.0D-05 until final iterations.
 Initial convergence to 1.0D-05 achieved.  Increase integral accuracy.
 SCF Done:  E(UM062X) =  -39.7604435721     A.U. after   14 cycles
            NFock= 14  Conv=0.43D-08     -V/T= 2.0051
 <Sx>= 0.0000 <Sy>= 0.0000 <Sz>= 0.5000 <S**2>= 0.7566 S= 0.5033
 <L.S>= 0.000000000000E+00
 Annihilation of the first spin contaminant:
 S**2 before annihilation     0.7566,   after     0.7500
 DoSCS=F DFT=T ScalE2(SS,OS)=  1.000000  1.000000
 Range of M.O.s used for correlation:     1    72
 NBasis=    72 NAE=     5 NBE=     4 NFC=     0 NFV=     0
 NROrb=     72 NOA=     5 NOB=     4 NVA=    67 NVB=    68

 **** Warning!!: The largest alpha MO coefficient is  0.11026003D+02


 **** Warning!!: The largest beta MO coefficient is  0.11020754D+02

 Symmetrizing basis deriv contribution to polar:
 IMax=3 JMax=2 DiffMx= 0.00D+00
 G2DrvN: will do     5 centers at a time, making    1 passes.
 Calling FoFCou, ICntrl=  3107 FMM=F I1Cent=   0 AccDes= 0.00D+00.
 End of G2Drv F.D. properties file   721 does not exist.
 End of G2Drv F.D. properties file   722 does not exist.
 End of G2Drv F.D. properties file   788 does not exist.
          IDoAtm=1111
          Differentiating once with respect to nuclear coordinates.
 Keep R1 and R2 ints in memory in canonical form, NReq=24947241.
          There are    15 degrees of freedom in the 1st order CPHF.  IDoFFX=6 NUNeed=     0.
      9 vectors produced by pass  0 Test12= 4.05D-15 6.67D-09 XBig12= 1.11D-01 1.30D-01.
 AX will form     9 AO Fock derivatives at one time.
      9 vectors produced by pass  1 Test12= 4.05D-15 6.67D-09 XBig12= 5.86D-03 3.39D-02.
      9 vectors produced by pass  2 Test12= 4.05D-15 6.67D-09 XBig12= 1.54D-04 5.93D-03.
      9 vectors produced by pass  3 Test12= 4.05D-15 6.67D-09 XBig12= 3.08D-06 7.75D-04.
      9 vectors produced by pass  4 Test12= 4.05D-15 6.67D-09 XBig12= 4.05D-08 9.24D-05.
      9 vectors produced by pass  5 Test12= 4.05D-15 6.67D-09 XBig12= 4.26D-10 6.81D-06.
      8 vectors produced by pass  6 Test12= 4.05D-15 6.67D-09 XBig12= 4.46D-12 8.56D-07.
      5 vectors produced by pass  7 Test12= 4.05D-15 6.67D-09 XBig12= 2.15D-14 4.83D-08.
 InvSVY:  IOpt=1 It=  1 EMax= 4.44D-16
 Solved reduced A of dimension    67 with     9 vectors.
 End of Minotr F.D. properties file   721 does not exist.
 End of Minotr F.D. properties file   722 does not exist.
 End of Minotr F.D. properties file   788 does not exist.

 **********************************************************************

            Population analysis using the SCF density.

 **********************************************************************

 Orbital symmetries:
 Alpha Orbitals:
       Occupied  (A) (A) (A) (A) (A)
       Virtual   (A) (A) (A) (A) (A) (A) (A) (A) (A) (A) (A) (A)
                 (A) (A) (A) (A) (A) (A) (A) (A) (A) (A) (A) (A)
                 (A) (A) (A) (A) (A) (A) (A) (A) (A) (A) (A) (A)
                 (A) (A) (A) (A) (A) (A) (A) (A) (A) (A) (A) (A)
                 (A) (A) (A) (A) (A) (A) (A) (A) (A) (A) (A) (A)
                 (A) (A) (A) (A) (A) (A) (A)
 Beta  Orbitals:
       Occupied  (A) (A) (A) (A)
       Virtual   (A) (A) (A) (A) (A) (A) (A) (A) (A) (A) (A) (A)
                 (A) (A) (A) (A) (A) (A) (A) (A) (A) (A) (A) (A)
                 (A) (A) (A) (A) (A) (A) (A) (A) (A) (A) (A) (A)
                 (A) (A) (A) (A) (A) (A) (A) (A) (A) (A) (A) (A)
                 (A) (A) (A) (A) (A) (A) (A) (A) (A) (A) (A) (A)
                 (A) (A) (A) (A) (A) (A) (A) (A)
 The electronic state is 2-A.
 Alpha  occ. eigenvalues --  -10.54543  -0.79782  -0.54101  -0.40553  -0.29138
 Alpha virt. eigenvalues --    0.07359   0.11621   0.13187   0.26520   0.35939
 Alpha virt. eigenvalues --    0.37977   0.44384   0.49392   0.50336   0.52493
 Alpha virt. eigenvalues --    0.56768   0.61743   0.62909   0.88777   0.91567
 Alpha virt. eigenvalues --    1.02148   1.09401   1.10056   1.15532   1.31495
 Alpha virt. eigenvalues --    1.34504   1.35559   1.40693   1.60227   2.07092
 Alpha virt. eigenvalues --    2.09402   2.17337   2.36418   2.37290   2.47631
 Alpha virt. eigenvalues --    2.62336   2.66814   2.67620   2.73182   2.80288
 Alpha virt. eigenvalues --    2.88185   2.90734   2.99983   3.04795   3.05938
 Alpha virt. eigenvalues --    3.22037   3.28941   3.47406   3.48693   3.51191
 Alpha virt. eigenvalues --    3.54394   3.67281   3.73951   3.76575   3.81808
 Alpha virt. eigenvalues --    3.86033   3.95109   4.13418   4.19336   4.52393
 Alpha virt. eigenvalues --    4.61356   4.70941   4.75142   4.94419   4.96480
 Alpha virt. eigenvalues --    5.01347   5.03979   5.57993   5.67382   5.94824
 Alpha virt. eigenvalues --    6.33668  11.45941
  Beta  occ. eigenvalues --  -10.53787  -0.75334  -0.53069  -0.38459
  Beta virt. eigenvalues --   -0.03494   0.07556   0.11787   0.12989   0.24923
  Beta virt. eigenvalues --    0.32521   0.34571   0.44034   0.47728   0.52026
  Beta virt. eigenvalues --    0.53357   0.59205   0.61924   0.65473   0.89035
  Beta virt. eigenvalues --    0.90793   1.01529   1.07839   1.09237   1.15005
  Beta virt. eigenvalues --    1.31945   1.33626   1.36490   1.42467   1.64071
  Beta virt. eigenvalues --    2.08898   2.14735   2.17917   2.37215   2.40070
  Beta virt. eigenvalues --    2.51583   2.63918   2.68176   2.73908   2.79867
  Beta virt. eigenvalues --    2.83673   2.93327   2.95088   3.03096   3.10666
  Beta virt. eigenvalues --    3.13643   3.23792   3.29788   3.48156   3.49599
  Beta virt. eigenvalues --    3.52425   3.55593   3.69593   3.75452   3.77007
  Beta virt. eigenvalues --    3.83976   3.86944   3.96946   4.14408   4.20785
  Beta virt. eigenvalues --    4.55108   4.67190   4.72501   4.80315   4.98710
  Beta virt. eigenvalues --    5.00860   5.05803   5.08232   5.63811   5.71208
  Beta virt. eigenvalues --    6.05663   6.37844  11.46614
          Condensed to atoms (all electrons):
               1          2          3          4
     1  C    5.444462   0.320064   0.398399   0.399954
     2  H    0.320064   0.674358  -0.058396  -0.064720
     3  H    0.398399  -0.058396   0.455823  -0.014985
     4  H    0.399954  -0.064720  -0.014985   0.464726
          Atomic-Atomic Spin Densities.
               1          2          3          4
     1  C    1.099734   0.006158  -0.002580  -0.002428
     2  H    0.006158  -0.055456   0.010702   0.012794
     3  H   -0.002580   0.010702  -0.043723  -0.001632
     4  H   -0.002428   0.012794  -0.001632  -0.046582
 Mulliken charges and spin densities:
               1          2
     1  C   -0.562879   1.100884
     2  H    0.128694  -0.025803
     3  H    0.219160  -0.037233
     4  H    0.215025  -0.037848
 Sum of Mulliken charges =  -0.00000   1.00000
 Mulliken charges and spin densities with hydrogens summed into heavy atoms:
               1          2
     1  C   -0.000000   1.000000
 APT charges:
               1
     1  C   -0.952101
     2  H    0.261086
     3  H    0.348401
     4  H    0.342614
 Sum of APT charges =  -0.00000
 APT charges with hydrogens summed into heavy atoms:
               1
     1  C   -0.000000
 Electronic spatial extent (au):  <R**2>=             29.8160
 Charge=             -0.0000 electrons
 Dipole moment (field-independent basis, Debye):
    X=              0.0429    Y=              0.7445    Z=              0.0465  Tot=              0.7472
 Quadrupole moment (field-independent basis, Debye-Ang):
   XX=             -6.0680   YY=             -8.8175   ZZ=             -9.1225
   XY=             -0.0136   XZ=             -0.0002   YZ=              0.0120
 Traceless Quadrupole moment (field-independent basis, Debye-Ang):
   XX=              1.9346   YY=             -0.8148   ZZ=             -1.1198
   XY=             -0.0136   XZ=             -0.0002   YZ=              0.0120
 Octapole moment (field-independent basis, Debye-Ang**2):
  XXX=              0.0154  YYY=              1.3834  ZZZ=              0.0700  XYY=              0.0340
  XXY=              0.5266  XXZ=              0.0628  XZZ=              0.0154  YZZ=              0.3636
  YYZ=              0.0272  XYZ=             -0.0006
 Hexadecapole moment (field-independent basis, Debye-Ang**3):
 XXXX=            -13.5918 YYYY=            -15.6470 ZZZZ=            -11.0613 XXXY=             -0.1583
 XXXZ=             -0.0022 YYYX=              0.0772 YYYZ=              0.0121 ZZZX=             -0.0010
 ZZZY=              0.0064 XXYY=             -5.9177 XXZZ=             -4.9812 YYZZ=             -4.6153
 XXYZ=              0.0027 YYXZ=             -0.0001 ZZXY=             -0.0011
 N-N= 9.769269878314D+00 E-N=-1.112712835097D+02  KE= 3.955686808056D+01
  Exact polarizability:   0.000   0.000   0.000   0.000   0.000   0.000
 Approx polarizability:  15.249   0.345  16.862   0.006   0.073  11.633
                          Isotropic Fermi Contact Couplings
        Atom                 a.u.       MegaHertz       Gauss      10(-4) cm-1
     1  C(13)              0.21387     240.43214      85.79216      80.19953
     2  H(1)              -0.01677     -74.93958     -26.74030     -24.99715
     3  H(1)              -0.01926     -86.10437     -30.72418     -28.72133
     4  H(1)              -0.01943     -86.85166     -30.99083     -28.97059
 --------------------------------------------------------
       Center         ----  Spin Dipole Couplings  ----
                      3XX-RR        3YY-RR        3ZZ-RR
 --------------------------------------------------------
     1   Atom       -0.578549     -0.525554      1.104104
     2   Atom       -0.076078      0.078927     -0.002849
     3   Atom        0.079560     -0.076714     -0.002846
     4   Atom        0.079732     -0.077045     -0.002687
 --------------------------------------------------------
                        XY            XZ            YZ
 --------------------------------------------------------
     1   Atom        0.000486      0.000641      0.025211
     2   Atom        0.011585      0.000195      0.002527
     3   Atom       -0.008121     -0.002451      0.001297
     4   Atom       -0.002189      0.002548      0.001155
 --------------------------------------------------------


 ---------------------------------------------------------------------------------
              Anisotropic Spin Dipole Couplings in Principal Axis System
 ---------------------------------------------------------------------------------

       Atom             a.u.   MegaHertz   Gauss  10(-4) cm-1        Axes

              Baa    -0.5786   -77.636   -27.703   -25.897  1.0000 -0.0090 -0.0002
     1 C(13)  Bbb    -0.5259   -70.576   -25.183   -23.542  0.0090  0.9998 -0.0155
              Bcc     1.1045   148.212    52.886    49.438  0.0004  0.0155  0.9999
 
              Baa    -0.0769   -41.051   -14.648   -13.693  0.9972 -0.0741 -0.0001
     2 H(1)   Bbb    -0.0029    -1.562    -0.557    -0.521 -0.0022 -0.0305  0.9995
              Bcc     0.0799    42.612    15.205    14.214  0.0741  0.9968  0.0306
 
              Baa    -0.0772   -41.165   -14.689   -13.731  0.0515  0.9985 -0.0157
     3 H(1)   Bbb    -0.0029    -1.550    -0.553    -0.517  0.0311  0.0141  0.9994
              Bcc     0.0801    42.715    15.242    14.248  0.9982 -0.0520 -0.0303
 
              Baa    -0.0771   -41.134   -14.678   -13.721  0.0142  0.9998 -0.0160
     4 H(1)   Bbb    -0.0027    -1.465    -0.523    -0.489 -0.0304  0.0164  0.9994
              Bcc     0.0798    42.599    15.200    14.209  0.9994 -0.0137  0.0307
 

 ---------------------------------------------------------------------------------

 Calling FoFJK, ICntrl=    100147 FMM=F ISym2X=0 I1Cent= 0 IOpClX= 1 NMat=1 NMatS=1 NMatT=0.
 ***** Axes restored to original set *****
 -------------------------------------------------------------------
 Center     Atomic                   Forces (Hartrees/Bohr)
 Number     Number              X              Y              Z
 -------------------------------------------------------------------
      1        6           0.012819762    0.025564399   -0.063123598
      2        1           0.010147439    0.005393256   -0.018599247
      3        1          -0.009348873   -0.015600411    0.038330234
      4        1          -0.013618328   -0.015357244    0.043392611
 -------------------------------------------------------------------
 Cartesian Forces:  Max     0.063123598 RMS     0.027965256
 FormGI is forming the generalized inverse of G from B-inverse, IUseBI=4.

 GradGradGradGradGradGradGradGradGradGradGradGradGradGradGradGradGradGrad
 Berny optimization.
 Internal  Forces:  Max     0.040274367 RMS     0.022516729
 Search for a local minimum.
 Step number   1 out of a maximum of  100
 All quantities printed in internal units (Hartrees-Bohrs-Radians)
 Swapping is turned off.
 Second derivative matrix not updated -- analytic derivatives used.
 The second derivative matrix:
                          R1        R2        R3        A1        A2
           R1           0.33703
           R2           0.00794   0.38492
           R3           0.01009  -0.00889   0.37554
           A1           0.00790   0.01192  -0.01010   0.06916
           A2           0.01094  -0.00966   0.01253  -0.07491   0.07100
           A3           0.01884   0.00226   0.00243  -0.00575  -0.00391
           A4           0.01552   0.00189   0.00202  -0.00628  -0.00480
           D1           0.00156  -0.00002  -0.00001   0.01563   0.01556
                          A3        A4        D1
           A3          -0.00967
           A4          -0.01109  -0.01178
           D1           0.03120   0.02613  -0.00175
 ITU=  0
     Eigenvalues ---   -0.06320   0.03292   0.14300   0.33440   0.37516
     Eigenvalues ---    0.39217
 Eigenvalue     1 is  -6.32D-02 should be greater than     0.000000 Eigenvector:
                          D1        A3        A4        A1        A2
   1                    0.59938  -0.51619  -0.48804  -0.26296  -0.25322
                          R1        R2        R3
   1                    0.05276   0.00539   0.00520
 Quadratic step=1.331D+00 exceeds max=3.000D-01 adjusted using Lamda=-1.472D-01.
 Angle between NR and scaled steps=  15.54 degrees.
 Angle between quadratic step and forces=  14.55 degrees.
 Linear search not attempted -- option 19 set.
 New curvilinear step failed, DQL= 3.10D+00 SP=-3.94D-02.
 ITry= 1 IFail=1 DXMaxC= 0.00D+00 DCOld= 1.00D+10 DXMaxT= 3.00D-01 DXLimC= 3.00D+00 Rises=F
 New curvilinear step failed, DQL= 3.10D+00 SP=-4.86D-02.
 ITry= 2 IFail=1 DXMaxC= 0.00D+00 DCOld= 1.00D+10 DXMaxT= 3.00D-01 DXLimC= 3.00D+00 Rises=F
 New curvilinear step failed, DQL= 3.10D+00 SP=-5.80D-02.
 ITry= 3 IFail=1 DXMaxC= 0.00D+00 DCOld= 1.00D+10 DXMaxT= 3.00D-01 DXLimC= 3.00D+00 Rises=F
 New curvilinear step failed, DQL= 3.11D+00 SP=-6.74D-02.
 ITry= 4 IFail=1 DXMaxC= 0.00D+00 DCOld= 1.00D+10 DXMaxT= 3.00D-01 DXLimC= 3.00D+00 Rises=F
 New curvilinear step failed, DQL= 3.11D+00 SP=-7.68D-02.
 ITry= 5 IFail=1 DXMaxC= 0.00D+00 DCOld= 1.00D+10 DXMaxT= 3.00D-01 DXLimC= 3.00D+00 Rises=F
 New curvilinear step failed, DQL= 3.11D+00 SP=-8.62D-02.
 ITry= 6 IFail=1 DXMaxC= 0.00D+00 DCOld= 1.00D+10 DXMaxT= 3.00D-01 DXLimC= 3.00D+00 Rises=F
 New curvilinear step failed, DQL= 3.11D+00 SP=-9.56D-02.
 ITry= 7 IFail=1 DXMaxC= 0.00D+00 DCOld= 1.00D+10 DXMaxT= 3.00D-01 DXLimC= 3.00D+00 Rises=F
 New curvilinear step failed, DQL= 3.04D+00 SP=-1.04D-01.
 ITry= 8 IFail=1 DXMaxC= 0.00D+00 DCOld= 1.00D+10 DXMaxT= 3.00D-01 DXLimC= 3.00D+00 Rises=F
 Iteration  1 RMS(Cart)=  0.01829927 RMS(Int)=  0.00149793
 Iteration  2 RMS(Cart)=  0.00034040 RMS(Int)=  0.00017657
 Iteration  3 RMS(Cart)=  0.00000155 RMS(Int)=  0.00017656
 Iteration  4 RMS(Cart)=  0.00000000 RMS(Int)=  0.00017656
 ITry= 9 IFail=0 DXMaxC= 2.63D-02 DCOld= 1.00D+10 DXMaxT= 3.00D-01 DXLimC= 3.00D+00 Rises=F
 Variable       Old X    -DE/DX   Delta X   Delta X   Delta X     New X
                                 (Linear)    (Quad)   (Total)
    R1        2.05858   0.02099   0.00000   0.02912   0.00582   2.06440
    R2        2.02820   0.00100   0.00000   0.00058   0.00012   2.02831
    R3        2.03529   0.00003   0.00000  -0.00309  -0.00062   2.03467
    A1        1.58253   0.01429   0.00000   0.08117   0.01612   1.59865
    A2        1.50144   0.02598   0.00000   0.11934   0.02375   1.52519
    A3        3.08397   0.04027   0.00000   0.20051   0.03987   3.12384
    A4        3.09351   0.03316   0.00000   0.16296   0.03300   3.12652
    D1        0.69612   0.00367   0.00000   0.04004   0.00802   0.70414
         Item               Value     Threshold  Converged?
 Maximum Force            0.040274     0.000002     NO 
 RMS     Force            0.022517     0.000001     NO 
 Maximum Displacement     0.026330     0.000006     NO 
 RMS     Displacement     0.018304     0.000004     NO 
 Predicted change in Energy=-3.705098D-03
 GradGradGradGradGradGradGradGradGradGradGradGradGradGradGradGradGradGrad

                          Input orientation:                          
 ---------------------------------------------------------------------
 Center     Atomic      Atomic             Coordinates (Angstroms)
 Number     Number       Type             X           Y           Z
 ---------------------------------------------------------------------
      1          6           0        2.576599    2.687201   -2.178549
      2          1           0        2.806636    3.046530   -3.184224
      3          1           0        3.462448    2.081414   -2.159900
      4          1           0        1.684347    3.288325   -2.221177
 ---------------------------------------------------------------------
                    Distance matrix (angstroms):
                    1          2          3          4
     1  C    0.000000
     2  H    1.092435   0.000000
     3  H    1.073338   1.552668   0.000000
     4  H    1.076699   1.498485   2.149892   0.000000
 Stoichiometry    CH3(2)
 Framework group  C1[X(CH3)]
 Deg. of freedom     6
 Full point group                 C1      NOp   1
 Largest Abelian subgroup         C1      NOp   1
 Largest concise Abelian subgroup C1      NOp   1
                         Standard orientation:                         
 ---------------------------------------------------------------------
 Center     Atomic      Atomic             Coordinates (Angstroms)
 Number     Number       Type             X           Y           Z
 ---------------------------------------------------------------------
      1          6           0       -0.008601   -0.123211   -0.002015
      2          1           0        0.064864    0.966749   -0.000106
      3          1           0       -1.081074   -0.080899    0.006107
      4          1           0        1.067814   -0.146583    0.006092
 ---------------------------------------------------------------------
 Rotational constants (GHZ):         452.5923483         216.7061032         146.5504324
 Standard basis: CC-pVTZ (5D, 7F)
 There are    80 symmetry adapted cartesian basis functions of A   symmetry.
 There are    72 symmetry adapted basis functions of A   symmetry.
    72 basis functions,   103 primitive gaussians,    80 cartesian basis functions
     5 alpha electrons        4 beta electrons
       nuclear repulsion energy         9.7535164425 Hartrees.
 NAtoms=    4 NActive=    4 NUniq=    4 SFac= 1.00D+00 NAtFMM=   60 NAOKFM=F Big=F
 Integral buffers will be    131072 words long.
 Raffenetti 2 integral format.
 Two-electron integral symmetry is turned on.
 One-electron integrals computed using PRISM.
 NBasis=    72 RedAO= T EigKep=  1.37D-03  NBF=    72
 NBsUse=    72 1.00D-06 EigRej= -1.00D+00 NBFU=    72
 Initial guess from the checkpoint file:  "/scratch/dinius.ab/QMscratch/Gau-418501.chk"
 B after Tr=    -0.000000   -0.000000    0.000000
         Rot=    0.999998   -0.000526    0.000009   -0.001891 Ang=  -0.22 deg.
 Initial guess <Sx>= 0.0000 <Sy>= 0.0000 <Sz>= 0.5000 <S**2>= 0.7566 S= 0.5033
 ExpMin= 1.03D-01 ExpMax= 8.24D+03 ExpMxC= 2.81D+02 IAcc=2 IRadAn=         4 AccDes= 0.00D+00
 Harris functional with IExCor= 1009 and IRadAn=       4 diagonalized for initial guess.
 HarFok:  IExCor= 1009 AccDes= 0.00D+00 IRadAn=         4 IDoV= 1 UseB2=F ITyADJ=14
 ICtDFT=  3500011 ScaDFX=  1.000000  1.000000  1.000000  1.000000
 FoFCou: FMM=F IPFlag=           0 FMFlag=      100000 FMFlg1=           0
         NFxFlg=           0 DoJE=T BraDBF=F KetDBF=T FulRan=T
         wScrn=  0.000000 ICntrl=       500 IOpCl=  0 I1Cent=   200000004 NGrid=           0
         NMat0=    1 NMatS0=      1 NMatT0=    0 NMatD0=    1 NMtDS0=    0 NMtDT0=    0
 Petite list used in FoFCou.
 Keep R1 and R2 ints in memory in canonical form, NReq=25013556.
 Requested convergence on RMS density matrix=1.00D-08 within 900 cycles.
 Requested convergence on MAX density matrix=1.00D-06.
 Requested convergence on             energy=1.00D-06.
 No special actions if energy rises.
 Integral accuracy reduced to 1.0D-05 until final iterations.
 Initial convergence to 1.0D-05 achieved.  Increase integral accuracy.
 SCF Done:  E(UM062X) =  -39.7641484860     A.U. after   13 cycles
            NFock= 13  Conv=0.45D-08     -V/T= 2.0054
 <Sx>= 0.0000 <Sy>= 0.0000 <Sz>= 0.5000 <S**2>= 0.7565 S= 0.5033
 <L.S>= 0.000000000000E+00
 Annihilation of the first spin contaminant:
 S**2 before annihilation     0.7565,   after     0.7500
 Calling FoFJK, ICntrl=      2127 FMM=F ISym2X=0 I1Cent= 0 IOpClX= 1 NMat=1 NMatS=1 NMatT=0.
 ***** Axes restored to original set *****
 -------------------------------------------------------------------
 Center     Atomic                   Forces (Hartrees/Bohr)
 Number     Number              X              Y              Z
 -------------------------------------------------------------------
      1        6           0.013379412    0.025747711   -0.066250458
      2        1           0.008259318    0.003454304   -0.015797885
      3        1          -0.009573928   -0.014251646    0.038739375
      4        1          -0.012064802   -0.014950369    0.043308968
 -------------------------------------------------------------------
 Cartesian Forces:  Max     0.066250458 RMS     0.028285813

 GradGradGradGradGradGradGradGradGradGradGradGradGradGradGradGradGradGrad
 Berny optimization.
 Using GDIIS optimizer.
 FormGI is forming the generalized inverse of G from B-inverse, IUseBI=4.
 Internal  Forces:  Max     0.040533509 RMS     0.022378803
 Search for a local minimum.
 Step number   2 out of a maximum of  100
 All quantities printed in internal units (Hartrees-Bohrs-Radians)
 Swapping is turned off.
 Update second derivatives using D2CorX and points    1    2
 DE= -3.70D-03 DEPred=-3.71D-03 R= 1.00D+00
 TightC=F SS=  1.41D+00  RLast= 6.00D-02 DXNew= 5.0454D-01 1.8004D-01
 Trust test= 1.00D+00 RLast= 6.00D-02 DXMaxT set to 3.00D-01
 The second derivative matrix:
                          R1        R2        R3        A1        A2
           R1           0.15364
           R2           0.00708   0.38537
           R3           0.01559  -0.00832   0.37602
           A1          -0.00925   0.00889  -0.01311   0.08671
           A2          -0.05776  -0.01235   0.01176  -0.06596   0.05760
           A3          -0.06701  -0.00346  -0.00135   0.02075  -0.00836
           A4           0.23190   0.01115   0.00539  -0.03959   0.03328
           D1          -0.09613   0.00138   0.00515  -0.00558  -0.03072
                          A3        A4        D1
           A3           0.01239
           A4          -0.00631  -0.11742
           D1          -0.03630   0.17514  -0.04618
 ITU=  1  0
     Eigenvalues ---   -0.15956   0.02041   0.13129   0.20867   0.37275
     Eigenvalues ---    0.39215
 Cosine:  0.854 <  0.970
 Cut down GDIIS temporarily because of the cosine check. E 9
 DIIS coeff's:     14.29483    -13.29483
 Cosine:  0.854 >  0.500
 Length:  1.329
 GDIIS step was calculated using  2 of the last  2 vectors.
 Maximum step size (   0.300) exceeded in Quadratic search.
    -- Step size scaled by   0.119
 New curvilinear step failed, DQL= 3.10D+00 SP=-2.18D-01.
 ITry= 1 IFail=1 DXMaxC= 0.00D+00 DCOld= 1.00D+10 DXMaxT= 3.00D-01 DXLimC= 3.00D+00 Rises=F
 New curvilinear step failed, DQL= 3.11D+00 SP=-2.17D-01.
 ITry= 2 IFail=1 DXMaxC= 0.00D+00 DCOld= 1.00D+10 DXMaxT= 3.00D-01 DXLimC= 3.00D+00 Rises=F
 New curvilinear step failed, DQL= 3.11D+00 SP=-2.17D-01.
 ITry= 3 IFail=1 DXMaxC= 0.00D+00 DCOld= 1.00D+10 DXMaxT= 3.00D-01 DXLimC= 3.00D+00 Rises=F
 New curvilinear step failed, DQL= 3.11D+00 SP=-2.16D-01.
 ITry= 4 IFail=1 DXMaxC= 0.00D+00 DCOld= 1.00D+10 DXMaxT= 3.00D-01 DXLimC= 3.00D+00 Rises=F
 New curvilinear step failed, DQL= 3.11D+00 SP=-2.13D-01.
 ITry= 5 IFail=1 DXMaxC= 0.00D+00 DCOld= 1.00D+10 DXMaxT= 3.00D-01 DXLimC= 3.00D+00 Rises=F
 New curvilinear step failed, DQL= 3.11D+00 SP=-2.08D-01.
 ITry= 6 IFail=1 DXMaxC= 0.00D+00 DCOld= 1.00D+10 DXMaxT= 3.00D-01 DXLimC= 3.00D+00 Rises=F
 New curvilinear step failed, DQL= 3.12D+00 SP=-2.01D-01.
 ITry= 7 IFail=1 DXMaxC= 0.00D+00 DCOld= 1.00D+10 DXMaxT= 3.00D-01 DXLimC= 3.00D+00 Rises=F
 New curvilinear step failed, DQL= 3.12D+00 SP=-1.89D-01.
 ITry= 8 IFail=1 DXMaxC= 0.00D+00 DCOld= 1.00D+10 DXMaxT= 3.00D-01 DXLimC= 3.00D+00 Rises=F
 New curvilinear step failed, DQL= 3.12D+00 SP=-1.72D-01.
 ITry= 9 IFail=1 DXMaxC= 0.00D+00 DCOld= 1.00D+10 DXMaxT= 3.00D-01 DXLimC= 3.00D+00 Rises=F
 New curvilinear step failed, DQL= 3.12D+00 SP=-1.46D-01.
 ITry=10 IFail=1 DXMaxC= 0.00D+00 DCOld= 1.00D+10 DXMaxT= 3.00D-01 DXLimC= 3.00D+00 Rises=F
 RedQX1 iteration     1 Try  1 RMS(Cart)=  0.01763323 RMS(Int)=  1.14698236 XScale=  0.10041463
 RedQX1 iteration     2 Try  1 RMS(Cart)=  0.00352665 RMS(Int)=  0.10681380 XScale= 23.98487901
 RedQX1 iteration     2 Try  2 RMS(Cart)=  0.00352667 RMS(Int)=  0.09953224 XScale=  6.63359263
 RedQX1 iteration     2 Try  3 RMS(Cart)=  0.00352669 RMS(Int)=  1.07879421 XScale=  0.10046470
 RedQX1 iteration     3 Try  1 RMS(Cart)=  0.00324456 RMS(Int)=  1.07835781 XScale=  0.10050741
 RedQX1 iteration     4 Try  1 RMS(Cart)=  0.00064891 RMS(Int)=  0.11525049 XScale=  1.14422652
 RedQX1 iteration     4 Try  2 RMS(Cart)=  0.00064900 RMS(Int)=  1.07347917 XScale=  0.10097441
 RedQX1 iteration     5 Try  1 RMS(Cart)=  0.00064381 RMS(Int)=  1.07331957 XScale=  0.10098913
 RedQX1 iteration     6 Try  1 RMS(Cart)=  0.00012876 RMS(Int)=  0.81951640 XScale=  0.13137562
 RedQX1 iteration     7 Try  1 RMS(Cart)=  0.00002575 RMS(Int)=  0.13236855 XScale=  0.89117745
 RedQX1 iteration     8 Try  1 RMS(Cart)=  0.00000515 RMS(Int)=  0.11772442 XScale=  1.09438734
 RedQX1 iteration     8 Try  2 RMS(Cart)=  0.00000515 RMS(Int)=  0.12057672 XScale=  1.04434825
 RedQX1 iteration     8 Try  3 RMS(Cart)=  0.00000515 RMS(Int)=  0.12387727 XScale=  0.99411362
 RedQX1 iteration     9 Try  1 RMS(Cart)=  0.00000515 RMS(Int)=  0.12387682 XScale=  0.99412008
 RedQX1 iteration    10 Try  1 RMS(Cart)=  0.00000103 RMS(Int)=  0.12119723 XScale=  1.03433665
 RedQX1 iteration    10 Try  2 RMS(Cart)=  0.00000103 RMS(Int)=  0.12183618 XScale=  1.02431724
 RedQX1 iteration    10 Try  3 RMS(Cart)=  0.00000103 RMS(Int)=  0.12249421 XScale=  1.01429005
 RedQX1 iteration    10 Try  4 RMS(Cart)=  0.00000103 RMS(Int)=  0.12317201 XScale=  1.00425515
 RedQX1 iteration    10 Try  5 RMS(Cart)=  0.00000103 RMS(Int)=  0.12387028 XScale=  0.99421258
 RedQX1 iteration    11 Try  1 RMS(Cart)=  0.00000103 RMS(Int)=  0.12387024 XScale=  0.99421310
 RedQX1 iteration    12 Try  1 RMS(Cart)=  0.00000021 RMS(Int)=  0.12330994 XScale=  1.00224813
 RedQX1 iteration    12 Try  2 RMS(Cart)=  0.00000021 RMS(Int)=  0.12344870 XScale=  1.00024081
 RedQX1 iteration    12 Try  3 RMS(Cart)=  0.00000021 RMS(Int)=  0.12358828 XScale=  0.99823318
 RedQX1 iteration    13 Try  1 RMS(Cart)=  0.00000021 RMS(Int)=  0.12358828 XScale=  0.99823319
 RedQX1 iteration    14 Try  1 RMS(Cart)=  0.00000004 RMS(Int)=  0.12347655 XScale=  0.99983934
 B after Tr=     0.000000   -0.000000    0.000000
         Rot=    1.000000    0.000000    0.000000   -0.000000 Ang=   0.00 deg.
 Variable       Old X    -DE/DX   Delta X   Delta X   Delta X     New X
                                 (Linear)    (Quad)   (Total)
    R1        2.06440   0.01742   0.00919  -0.00791   0.00014   2.06454
    R2        2.02831   0.00082   0.00018  -0.00192  -0.00003   2.02829
    R3        2.03467  -0.00006  -0.00098  -0.00348  -0.00025   2.03441
    A1        1.59865   0.01503   0.02543   0.06420   0.00779   1.60644
    A2        1.52519   0.02551   0.03747   0.07527   0.00982   1.53501
    A3        3.12384   0.04053   0.06290   0.13947   0.01761   3.14145
    A4        3.12652   0.03438   0.05206   0.11582   0.01485   3.14136
    D1        0.70414   0.00109   0.01265   0.08445   0.31413   1.01827
         Item               Value     Threshold  Converged?
 Maximum Force            0.040534     0.000002     NO 
 RMS     Force            0.022379     0.000001     NO 
 Maximum Displacement     0.012131     0.000006     NO 
 RMS     Displacement     0.007717     0.000004     NO 
 Predicted change in Energy=-3.722905D-03
 GradGradGradGradGradGradGradGradGradGradGradGradGradGradGradGradGradGrad

                          Input orientation:                          
 ---------------------------------------------------------------------
 Center     Atomic      Atomic             Coordinates (Angstroms)
 Number     Number       Type             X           Y           Z
 ---------------------------------------------------------------------
      1          6           0        2.574850    2.684689   -2.184969
      2          1           0        2.808251    3.047726   -3.188612
      3          1           0        3.462603    2.082186   -2.154820
      4          1           0        1.684326    3.288869   -2.215448
 ---------------------------------------------------------------------
                    Distance matrix (angstroms):
                    1          2          3          4
     1  C    0.000000
     2  H    1.092507   0.000000
     3  H    1.073325   1.558579   0.000000
     4  H    1.076566   1.506123   2.149890   0.000000
 Stoichiometry    CH3(2)
 Framework group  C1[X(CH3)]
 Deg. of freedom     6
 Full point group                 C1      NOp   1
 Largest Abelian subgroup         C1      NOp   1
 Largest concise Abelian subgroup C1      NOp   1
                         Standard orientation:                         
 ---------------------------------------------------------------------
 Center     Atomic      Atomic             Coordinates (Angstroms)
 Number     Number       Type             X           Y           Z
 ---------------------------------------------------------------------
      1          6           0       -0.008316   -0.121135   -0.000031
      2          1           0        0.063284    0.969023   -0.000000
      3          1           0       -1.081159   -0.089003    0.000094
      4          1           0        1.067772   -0.153210    0.000093
 ---------------------------------------------------------------------
 Rotational constants (GHZ):         451.4510845         216.7311132         146.4323623
 Standard basis: CC-pVTZ (5D, 7F)
 There are    80 symmetry adapted cartesian basis functions of A   symmetry.
 There are    72 symmetry adapted basis functions of A   symmetry.
    72 basis functions,   103 primitive gaussians,    80 cartesian basis functions
     5 alpha electrons        4 beta electrons
       nuclear repulsion energy         9.7506434693 Hartrees.
 NAtoms=    4 NActive=    4 NUniq=    4 SFac= 1.00D+00 NAtFMM=   60 NAOKFM=F Big=F
 Integral buffers will be    131072 words long.
 Raffenetti 2 integral format.
 Two-electron integral symmetry is turned on.
 One-electron integrals computed using PRISM.
 NBasis=    72 RedAO= T EigKep=  1.36D-03  NBF=    72
 NBsUse=    72 1.00D-06 EigRej= -1.00D+00 NBFU=    72
 Initial guess from the checkpoint file:  "/scratch/dinius.ab/QMscratch/Gau-418501.chk"
 B after Tr=    -0.000000    0.000000   -0.000000
         Rot=    1.000000   -0.000055    0.000001   -0.000512 Ang=  -0.06 deg.
 Initial guess <Sx>= 0.0000 <Sy>= 0.0000 <Sz>= 0.5000 <S**2>= 0.7565 S= 0.5033
 Keep R1 and R2 ints in memory in canonical form, NReq=25013556.
 Requested convergence on RMS density matrix=1.00D-08 within 900 cycles.
 Requested convergence on MAX density matrix=1.00D-06.
 Requested convergence on             energy=1.00D-06.
 No special actions if energy rises.
 SCF Done:  E(UM062X) =  -39.7657536174     A.U. after   10 cycles
            NFock= 10  Conv=0.36D-08     -V/T= 2.0054
 <Sx>= 0.0000 <Sy>= 0.0000 <Sz>= 0.5000 <S**2>= 0.7565 S= 0.5032
 <L.S>= 0.000000000000E+00
 Annihilation of the first spin contaminant:
 S**2 before annihilation     0.7565,   after     0.7500
 Calling FoFJK, ICntrl=      2127 FMM=F ISym2X=0 I1Cent= 0 IOpClX= 1 NMat=1 NMatS=1 NMatT=0.
 ***** Axes restored to original set *****
 -------------------------------------------------------------------
 Center     Atomic                   Forces (Hartrees/Bohr)
 Number     Number              X              Y              Z
 -------------------------------------------------------------------
      1        6           0.013403962    0.025609303   -0.066847471
      2        1           0.007684899    0.002835526   -0.015330481
      3        1          -0.009646425   -0.013671438    0.038868720
      4        1          -0.011442436   -0.014773392    0.043309232
 -------------------------------------------------------------------
 Cartesian Forces:  Max     0.066847471 RMS     0.028316396

 GradGradGradGradGradGradGradGradGradGradGradGradGradGradGradGradGradGrad
 Berny optimization.
 Using GDIIS optimizer.
 FormGI is forming the generalized inverse of G from B-inverse, IUseBI=4.
 Internal  Forces:  Max     0.035669092 RMS     0.017055318
 Search for a local minimum.
 Step number   3 out of a maximum of  100
 All quantities printed in internal units (Hartrees-Bohrs-Radians)
 Swapping is turned off.
 Update second derivatives using D2CorX and points    1    2    3
 DE= -1.61D-03 DEPred=-3.72D-03 R= 4.31D-01
 Trust test= 4.31D-01 RLast= 3.15D-01 DXMaxT set to 3.00D-01
 The second derivative matrix:
                          R1        R2        R3        A1        A2
           R1           0.41167
           R2           0.00138   0.38553
           R3          -0.00040  -0.00793   0.37705
           A1          -0.00117   0.01068  -0.01145   0.18256
           A2           0.01466  -0.01193   0.00949   0.03509   0.18000
           A3           0.01349  -0.00125  -0.00195   0.21765   0.21509
           A4          -0.27801   0.02293   0.03756  -0.02022  -0.07354
           D1           0.01417  -0.00079  -0.00141   0.01217   0.01495
                          A3        A4        D1
           A3           0.43274
           A4          -0.09376   0.89895
           D1           0.02711  -0.03838   0.00294
 ITU=  0  1  0
     Eigenvalues ---    0.00243   0.14240   0.29600   0.37389   0.39216
     Eigenvalues ---    0.81439
 Cosine:  0.152 <  0.840
 Cut down GDIIS temporarily because of the cosine check. E 7
 DIIS coeff's:      2.36294     -1.36294
 Cosine:  0.992 >  0.970
 Length:  1.014
 GDIIS step was calculated using  2 of the last  3 vectors.
 Iteration  1 RMS(Cart)=  0.00521335 RMS(Int)=  0.98930966
 Iteration  2 RMS(Cart)=  0.04680464 RMS(Int)=  0.97444335
 Iteration  3 RMS(Cart)=  0.00603702 RMS(Int)=  0.90796734
 Iteration  4 RMS(Cart)=  0.00633398 RMS(Int)=  0.83958368
 Iteration  5 RMS(Cart)=  0.00640161 RMS(Int)=  0.77272384
 Iteration  6 RMS(Cart)=  0.00607188 RMS(Int)=  0.70865522
 Iteration  7 RMS(Cart)=  0.00534831 RMS(Int)=  0.65007322
 Iteration  8 RMS(Cart)=  0.00427451 RMS(Int)=  0.60163198
 Iteration  9 RMS(Cart)=  0.00293786 RMS(Int)=  0.56847787
 Iteration 10 RMS(Cart)=  0.00168286 RMS(Int)=  0.55031060
 Iteration 11 RMS(Cart)=  0.00098484 RMS(Int)=  0.53997199
 Iteration 12 RMS(Cart)=  0.00072330 RMS(Int)=  0.53235957
 Iteration 13 RMS(Cart)=  0.00061378 RMS(Int)=  0.52580604
 Iteration 14 RMS(Cart)=  0.00055627 RMS(Int)=  0.51975755
 Iteration 15 RMS(Cart)=  0.00052076 RMS(Int)=  0.51398073
 Iteration 16 RMS(Cart)=  0.00049640 RMS(Int)=  0.50835505
 Iteration 17 RMS(Cart)=  0.00047846 RMS(Int)=  0.50280596
 Iteration 18 RMS(Cart)=  0.00046466 RMS(Int)=  0.49727783
 Iteration 19 RMS(Cart)=  0.00045377 RMS(Int)=  0.49171939
 Iteration 20 RMS(Cart)=  0.00044512 RMS(Int)=  0.48607114
 Iteration 21 RMS(Cart)=  0.00043831 RMS(Int)=  0.48024667
 Iteration 22 RMS(Cart)=  0.00043344 RMS(Int)=  0.47408831
 Iteration 23 RMS(Cart)=  0.00043081 RMS(Int)=  0.46721779
 Iteration 24 RMS(Cart)=  0.00043179 RMS(Int)=  0.45814572
 Iteration 25 RMS(Cart)=  0.00044254 RMS(Int)=  0.06168502
 Iteration 26 RMS(Cart)=  0.00130699 RMS(Int)=  1.05873924
 Iteration 27 RMS(Cart)=  0.02591273 RMS(Int)=  1.04840575
 Iteration 28 RMS(Cart)=  0.00541740 RMS(Int)=  0.98188133
 Iteration 29 RMS(Cart)=  0.00587137 RMS(Int)=  0.91406181
 Iteration 30 RMS(Cart)=  0.00633074 RMS(Int)=  0.84558939
 Iteration 31 RMS(Cart)=  0.00641411 RMS(Int)=  0.77856274
 Iteration 32 RMS(Cart)=  0.00611811 RMS(Int)=  0.71416587
 Iteration 33 RMS(Cart)=  0.00542742 RMS(Int)=  0.65493931
 Iteration 34 RMS(Cart)=  0.00438259 RMS(Int)=  0.60537038
 Iteration 35 RMS(Cart)=  0.00306097 RMS(Int)=  0.57074163
 Iteration 36 RMS(Cart)=  0.00177583 RMS(Int)=  0.55149122
 Iteration 37 RMS(Cart)=  0.00102338 RMS(Int)=  0.54073825
 Iteration 38 RMS(Cart)=  0.00073784 RMS(Int)=  0.53298007
 Iteration 39 RMS(Cart)=  0.00062068 RMS(Int)=  0.52636267
 Iteration 40 RMS(Cart)=  0.00056024 RMS(Int)=  0.52028132
 Iteration 41 RMS(Cart)=  0.00052337 RMS(Int)=  0.51448625
 Iteration 42 RMS(Cart)=  0.00049825 RMS(Int)=  0.50885059
 Iteration 43 RMS(Cart)=  0.00047986 RMS(Int)=  0.50329711
 Iteration 44 RMS(Cart)=  0.00046576 RMS(Int)=  0.49776918
 Iteration 45 RMS(Cart)=  0.00045464 RMS(Int)=  0.49221561
 Iteration 46 RMS(Cart)=  0.00044580 RMS(Int)=  0.48657825
 Iteration 47 RMS(Cart)=  0.00043884 RMS(Int)=  0.48077424
 Iteration 48 RMS(Cart)=  0.00043379 RMS(Int)=  0.47465556
 Iteration 49 RMS(Cart)=  0.00043093 RMS(Int)=  0.46787727
 Iteration 50 RMS(Cart)=  0.00043148 RMS(Int)=  0.45916608
 Iteration 51 RMS(Cart)=  0.00044065 RMS(Int)=  0.40558318
 Iteration 52 RMS(Cart)=  0.00063589 RMS(Int)=  0.70681961
 Iteration 53 RMS(Cart)=  0.00932707 RMS(Int)=  0.70118225
 Iteration 54 RMS(Cart)=  0.00174622 RMS(Int)=  0.63213554
 Iteration 55 RMS(Cart)=  0.00290730 RMS(Int)=  0.57963747
 Iteration 56 RMS(Cart)=  0.00147676 RMS(Int)=  0.55919844
 Iteration 57 RMS(Cart)=  0.00066789 RMS(Int)=  0.55093509
 Iteration 58 RMS(Cart)=  0.00053006 RMS(Int)=  0.54442614
 Iteration 59 RMS(Cart)=  0.00047975 RMS(Int)=  0.53850194
 Iteration 60 RMS(Cart)=  0.00045429 RMS(Int)=  0.53283483
 Iteration 61 RMS(Cart)=  0.00043932 RMS(Int)=  0.52728103
 Iteration 62 RMS(Cart)=  0.00042989 RMS(Int)=  0.52175339
 Iteration 63 RMS(Cart)=  0.00042396 RMS(Int)=  0.51617936
 Iteration 64 RMS(Cart)=  0.00042063 RMS(Int)=  0.51047510
 Iteration 65 RMS(Cart)=  0.00041950 RMS(Int)=  0.50450938
 Iteration 66 RMS(Cart)=  0.00042080 RMS(Int)=  0.49800532
 Iteration 67 RMS(Cart)=  0.00042562 RMS(Int)=  0.49008307
 Iteration 68 RMS(Cart)=  0.00043828 RMS(Int)=  0.47165910
 Iteration 69 RMS(Cart)=  0.00050684 RMS(Int)=  0.63901535
 Iteration 70 RMS(Cart)=  0.00724863 RMS(Int)=  0.63332943
 Iteration 71 RMS(Cart)=  0.00161295 RMS(Int)=  0.56424676
 Iteration 72 RMS(Cart)=  0.00133742 RMS(Int)=  0.54532918
 Iteration 73 RMS(Cart)=  0.00069100 RMS(Int)=  0.53650810
 Iteration 74 RMS(Cart)=  0.00054163 RMS(Int)=  0.52967570
 Iteration 75 RMS(Cart)=  0.00048364 RMS(Int)=  0.52355144
 Iteration 76 RMS(Cart)=  0.00045335 RMS(Int)=  0.51775817
 Iteration 77 RMS(Cart)=  0.00043475 RMS(Int)=  0.51213381
 Iteration 78 RMS(Cart)=  0.00042219 RMS(Int)=  0.50658816
 Iteration 79 RMS(Cart)=  0.00041324 RMS(Int)=  0.50105747
 Iteration 80 RMS(Cart)=  0.00040671 RMS(Int)=  0.49548359
 Iteration 81 RMS(Cart)=  0.00040203 RMS(Int)=  0.48979728
 Iteration 82 RMS(Cart)=  0.00039890 RMS(Int)=  0.48389245
 Iteration 83 RMS(Cart)=  0.00039755 RMS(Int)=  0.47755965
 Iteration 84 RMS(Cart)=  0.00039856 RMS(Int)=  0.47022359
 Iteration 85 RMS(Cart)=  0.00040419 RMS(Int)=  0.45861671
 Iteration 86 RMS(Cart)=  0.00042838 RMS(Int)=  0.64655441
 Iteration 87 RMS(Cart)=  0.00574526 RMS(Int)=  0.64344635
 Iteration 88 RMS(Cart)=  0.00110511 RMS(Int)=  0.57448084
 Iteration 89 RMS(Cart)=  0.00110913 RMS(Int)=  0.55681308
 Iteration 90 RMS(Cart)=  0.00052155 RMS(Int)=  0.54953458
 Iteration 91 RMS(Cart)=  0.00044577 RMS(Int)=  0.54338608
 Iteration 92 RMS(Cart)=  0.00041702 RMS(Int)=  0.53763548
 Iteration 93 RMS(Cart)=  0.00040284 RMS(Int)=  0.53205282
 Iteration 94 RMS(Cart)=  0.00039519 RMS(Int)=  0.52652418
 Iteration 95 RMS(Cart)=  0.00039122 RMS(Int)=  0.52096812
 Iteration 96 RMS(Cart)=  0.00038975 RMS(Int)=  0.51530060
 Iteration 97 RMS(Cart)=  0.00039042 RMS(Int)=  0.50939929
 Iteration 98 RMS(Cart)=  0.00039322 RMS(Int)=  0.50302064
 Iteration 99 RMS(Cart)=  0.00039912 RMS(Int)=  0.49544921
 Iteration100 RMS(Cart)=  0.00041157 RMS(Int)=  0.48137393
 New curvilinear step not converged.
 ITry= 1 IFail=1 DXMaxC= 6.23D-02 DCOld= 1.00D+10 DXMaxT= 3.00D-01 DXLimC= 3.00D+00 Rises=F
 Iteration  1 RMS(Cart)=  0.00476537 RMS(Int)=  1.01642189
 Iteration  2 RMS(Cart)=  0.04280146 RMS(Int)=  1.00222777
 Iteration  3 RMS(Cart)=  0.00562787 RMS(Int)=  0.93562548
 Iteration  4 RMS(Cart)=  0.00595497 RMS(Int)=  0.86698977
 Iteration  5 RMS(Cart)=  0.00601580 RMS(Int)=  0.79982902
 Iteration  6 RMS(Cart)=  0.00569508 RMS(Int)=  0.73554626
 Iteration  7 RMS(Cart)=  0.00499682 RMS(Int)=  0.67704398
 Iteration  8 RMS(Cart)=  0.00396343 RMS(Int)=  0.62916759
 Iteration  9 RMS(Cart)=  0.00268937 RMS(Int)=  0.59695272
 Iteration 10 RMS(Cart)=  0.00152589 RMS(Int)=  0.57949215
 Iteration 11 RMS(Cart)=  0.00090372 RMS(Int)=  0.56941324
 Iteration 12 RMS(Cart)=  0.00067242 RMS(Int)=  0.56188576
 Iteration 13 RMS(Cart)=  0.00057404 RMS(Int)=  0.55536393
 Iteration 14 RMS(Cart)=  0.00052169 RMS(Int)=  0.54932729
 Iteration 15 RMS(Cart)=  0.00048907 RMS(Int)=  0.54355335
 Iteration 16 RMS(Cart)=  0.00046654 RMS(Int)=  0.53792577
 Iteration 17 RMS(Cart)=  0.00044988 RMS(Int)=  0.53237176
 Iteration 18 RMS(Cart)=  0.00043701 RMS(Int)=  0.52683628
 Iteration 19 RMS(Cart)=  0.00042684 RMS(Int)=  0.52126787
 Iteration 20 RMS(Cart)=  0.00041874 RMS(Int)=  0.51560596
 Iteration 21 RMS(Cart)=  0.00041238 RMS(Int)=  0.50976131
 Iteration 22 RMS(Cart)=  0.00040784 RMS(Int)=  0.50356860
 Iteration 23 RMS(Cart)=  0.00040546 RMS(Int)=  0.49662236
 Iteration 24 RMS(Cart)=  0.00040663 RMS(Int)=  0.48724159
 Iteration 25 RMS(Cart)=  0.00041790 RMS(Int)=  0.55972553
 Iteration 26 RMS(Cart)=  0.00163798 RMS(Int)=  0.55818636
 Iteration 27 RMS(Cart)=  0.00034263 RMS(Int)=  0.48779948
 Iteration 28 RMS(Cart)=  0.00034730 RMS(Int)=  0.48189764
 Iteration 29 RMS(Cart)=  0.00035126 RMS(Int)=  0.47551017
 Iteration 30 RMS(Cart)=  0.00035807 RMS(Int)=  0.46789107
 Iteration 31 RMS(Cart)=  0.00037112 RMS(Int)=  0.45311799
 Iteration 32 RMS(Cart)=  0.00041966 RMS(Int)=  0.65619478
 Iteration 33 RMS(Cart)=  0.00589569 RMS(Int)=  0.65142171
 Iteration 34 RMS(Cart)=  0.00129137 RMS(Int)=  0.58204939
 Iteration 35 RMS(Cart)=  0.00080708 RMS(Int)=  0.57032032
 Iteration 36 RMS(Cart)=  0.00053710 RMS(Int)=  0.56284693
 Iteration 37 RMS(Cart)=  0.00045959 RMS(Int)=  0.55647955
 Iteration 38 RMS(Cart)=  0.00042448 RMS(Int)=  0.55056997
 Iteration 39 RMS(Cart)=  0.00040460 RMS(Int)=  0.54488554
 Iteration 40 RMS(Cart)=  0.00039187 RMS(Int)=  0.53931157
 Iteration 41 RMS(Cart)=  0.00038313 RMS(Int)=  0.53377522
 Iteration 42 RMS(Cart)=  0.00037692 RMS(Int)=  0.52821665
 Iteration 43 RMS(Cart)=  0.00037253 RMS(Int)=  0.52257123
 Iteration 44 RMS(Cart)=  0.00036967 RMS(Int)=  0.51674791
 Iteration 45 RMS(Cart)=  0.00036824 RMS(Int)=  0.51058174
 Iteration 46 RMS(Cart)=  0.00036878 RMS(Int)=  0.50367096
 Iteration 47 RMS(Cart)=  0.00037266 RMS(Int)=  0.49435928
 Iteration 48 RMS(Cart)=  0.00038639 RMS(Int)=  0.54800172
 Iteration 49 RMS(Cart)=  0.00000315 RMS(Int)=  0.53756045
 Iteration 50 RMS(Cart)=  0.00000745 RMS(Int)=  0.53037871
 Iteration 51 RMS(Cart)=  0.00000401 RMS(Int)=  0.52382858
 Iteration 52 RMS(Cart)=  0.00059037 RMS(Int)=  0.52263241
 Iteration 53 RMS(Cart)=  0.00010937 RMS(Int)=  0.51694847
 Iteration 54 RMS(Cart)=  0.00012816 RMS(Int)=  0.51075139
 Iteration 55 RMS(Cart)=  0.00014879 RMS(Int)=  0.50305074
 Iteration 56 RMS(Cart)=  0.00017575 RMS(Int)=  0.47792824
 Iteration 57 RMS(Cart)=  0.00028715 RMS(Int)=  0.63375037
 Iteration 58 RMS(Cart)=  0.00415248 RMS(Int)=  0.62853104
 Iteration 59 RMS(Cart)=  0.00091154 RMS(Int)=  0.55940440
 Iteration 60 RMS(Cart)=  0.00041441 RMS(Int)=  0.55337139
 Iteration 61 RMS(Cart)=  0.00039257 RMS(Int)=  0.54763140
 Iteration 62 RMS(Cart)=  0.00037964 RMS(Int)=  0.54203408
 Iteration 63 RMS(Cart)=  0.00037126 RMS(Int)=  0.53649356
 Iteration 64 RMS(Cart)=  0.00036560 RMS(Int)=  0.53094563
 Iteration 65 RMS(Cart)=  0.00036181 RMS(Int)=  0.52532634
 Iteration 66 RMS(Cart)=  0.00035951 RMS(Int)=  0.51955129
 Iteration 67 RMS(Cart)=  0.00035857 RMS(Int)=  0.51347581
 Iteration 68 RMS(Cart)=  0.00035942 RMS(Int)=  0.50677032
 Iteration 69 RMS(Cart)=  0.00036311 RMS(Int)=  0.49825482
 Iteration 70 RMS(Cart)=  0.00037427 RMS(Int)=  0.45994215
 Iteration 71 RMS(Cart)=  0.00050557 RMS(Int)=  0.65193360
 Iteration 72 RMS(Cart)=  0.00737756 RMS(Int)=  0.64657313
 Iteration 73 RMS(Cart)=  0.00142833 RMS(Int)=  0.57709231
 Iteration 74 RMS(Cart)=  0.00221894 RMS(Int)=  0.53505107
 Iteration 75 RMS(Cart)=  0.00077693 RMS(Int)=  0.52423335
 Iteration 76 RMS(Cart)=  0.00052099 RMS(Int)=  0.51722204
 Iteration 77 RMS(Cart)=  0.00045426 RMS(Int)=  0.51111181
 Iteration 78 RMS(Cart)=  0.00042474 RMS(Int)=  0.50536048
 Iteration 79 RMS(Cart)=  0.00040857 RMS(Int)=  0.49977013
 Iteration 80 RMS(Cart)=  0.00039882 RMS(Int)=  0.49423622
 Iteration 81 RMS(Cart)=  0.00039283 RMS(Int)=  0.48868235
 Iteration 82 RMS(Cart)=  0.00038941 RMS(Int)=  0.48303036
 Iteration 83 RMS(Cart)=  0.00038816 RMS(Int)=  0.47716979
 Iteration 84 RMS(Cart)=  0.00038898 RMS(Int)=  0.47089053
 Iteration 85 RMS(Cart)=  0.00039258 RMS(Int)=  0.46362335
 Iteration 86 RMS(Cart)=  0.00040149 RMS(Int)=  0.45216916
 Iteration 87 RMS(Cart)=  0.00043132 RMS(Int)=  0.65257715
 Iteration 88 RMS(Cart)=  0.00570244 RMS(Int)=  0.64878793
 Iteration 89 RMS(Cart)=  0.00122869 RMS(Int)=  0.57926772
 Iteration 90 RMS(Cart)=  0.00072025 RMS(Int)=  0.56887601
 Iteration 91 RMS(Cart)=  0.00051376 RMS(Int)=  0.56169498
 Iteration 92 RMS(Cart)=  0.00044856 RMS(Int)=  0.55544102
 Iteration 93 RMS(Cart)=  0.00041764 RMS(Int)=  0.54958664
 Iteration 94 RMS(Cart)=  0.00039973 RMS(Int)=  0.54393062
 Iteration 95 RMS(Cart)=  0.00038812 RMS(Int)=  0.53836907
 Iteration 96 RMS(Cart)=  0.00038010 RMS(Int)=  0.53283295
 Iteration 97 RMS(Cart)=  0.00037442 RMS(Int)=  0.52726253
 Iteration 98 RMS(Cart)=  0.00037048 RMS(Int)=  0.52158974
 Iteration 99 RMS(Cart)=  0.00036802 RMS(Int)=  0.51571366
 Iteration100 RMS(Cart)=  0.00036702 RMS(Int)=  0.50944136
 New curvilinear step not converged.
 ITry= 2 IFail=1 DXMaxC= 5.59D-02 DCOld= 1.00D+10 DXMaxT= 3.00D-01 DXLimC= 3.00D+00 Rises=F
 Iteration  1 RMS(Cart)=  0.00432390 RMS(Int)=  1.04357256
 Iteration  2 RMS(Cart)=  0.03880393 RMS(Int)=  1.03002685
 Iteration  3 RMS(Cart)=  0.00522385 RMS(Int)=  0.96330343
 Iteration  4 RMS(Cart)=  0.00557188 RMS(Int)=  0.89443295
 Iteration  5 RMS(Cart)=  0.00562537 RMS(Int)=  0.82699986
 Iteration  6 RMS(Cart)=  0.00531450 RMS(Int)=  0.76254610
 Iteration  7 RMS(Cart)=  0.00464331 RMS(Int)=  0.70418957
 Iteration  8 RMS(Cart)=  0.00365251 RMS(Int)=  0.65697259
 Iteration  9 RMS(Cart)=  0.00244389 RMS(Int)=  0.62578379
 Iteration 10 RMS(Cart)=  0.00137379 RMS(Int)=  0.60905505
 Iteration 11 RMS(Cart)=  0.00082499 RMS(Int)=  0.59923982
 Iteration 12 RMS(Cart)=  0.00062213 RMS(Int)=  0.59180124
 Iteration 13 RMS(Cart)=  0.00053440 RMS(Int)=  0.58531430
 Iteration 14 RMS(Cart)=  0.00048705 RMS(Int)=  0.57929194
 Iteration 15 RMS(Cart)=  0.00045727 RMS(Int)=  0.57352273
 Iteration 16 RMS(Cart)=  0.00043655 RMS(Int)=  0.56789470
 Iteration 17 RMS(Cart)=  0.00042117 RMS(Int)=  0.56233684
 Iteration 18 RMS(Cart)=  0.00040925 RMS(Int)=  0.55679473
 Iteration 19 RMS(Cart)=  0.00039980 RMS(Int)=  0.55121667
 Iteration 20 RMS(Cart)=  0.00039227 RMS(Int)=  0.54554082
 Iteration 21 RMS(Cart)=  0.00038636 RMS(Int)=  0.53967469
 Iteration 22 RMS(Cart)=  0.00038217 RMS(Int)=  0.53344399
 Iteration 23 RMS(Cart)=  0.00038005 RMS(Int)=  0.52641039
 Iteration 24 RMS(Cart)=  0.00038143 RMS(Int)=  0.51664159
 Iteration 25 RMS(Cart)=  0.00039337 RMS(Int)=  0.56683876
 Iteration 26 RMS(Cart)=  0.00395476 RMS(Int)=  0.56500909
 Iteration 27 RMS(Cart)=  0.00076916 RMS(Int)=  0.49673737
 Iteration 28 RMS(Cart)=  0.00044276 RMS(Int)=  0.48935587
 Iteration 29 RMS(Cart)=  0.00037623 RMS(Int)=  0.48319542
 Iteration 30 RMS(Cart)=  0.00035275 RMS(Int)=  0.47744102
 Iteration 31 RMS(Cart)=  0.00034182 RMS(Int)=  0.47185348
 Iteration 32 RMS(Cart)=  0.00033635 RMS(Int)=  0.46631627
 Iteration 33 RMS(Cart)=  0.00033392 RMS(Int)=  0.46074564
 Iteration 34 RMS(Cart)=  0.00033356 RMS(Int)=  0.45505326
 Iteration 35 RMS(Cart)=  0.00033501 RMS(Int)=  0.44910637
 Iteration 36 RMS(Cart)=  0.00033832 RMS(Int)=  0.44262920
 Iteration 37 RMS(Cart)=  0.00034452 RMS(Int)=  0.43474813
 Iteration 38 RMS(Cart)=  0.00035738 RMS(Int)=  0.41640251
 Iteration 39 RMS(Cart)=  0.00041899 RMS(Int)=  0.69394470
 Iteration 40 RMS(Cart)=  0.00599359 RMS(Int)=  0.68865962
 Iteration 41 RMS(Cart)=  0.00133734 RMS(Int)=  0.61923512
 Iteration 42 RMS(Cart)=  0.00098486 RMS(Int)=  0.60366292
 Iteration 43 RMS(Cart)=  0.00056035 RMS(Int)=  0.59545060
 Iteration 44 RMS(Cart)=  0.00045697 RMS(Int)=  0.58881040
 Iteration 45 RMS(Cart)=  0.00041421 RMS(Int)=  0.58276650
 Iteration 46 RMS(Cart)=  0.00039110 RMS(Int)=  0.57700861
 Iteration 47 RMS(Cart)=  0.00037663 RMS(Int)=  0.57139603
 Iteration 48 RMS(Cart)=  0.00036676 RMS(Int)=  0.56584643
 Iteration 49 RMS(Cart)=  0.00035971 RMS(Int)=  0.56029823
 Iteration 50 RMS(Cart)=  0.00035460 RMS(Int)=  0.55469139
 Iteration 51 RMS(Cart)=  0.00035102 RMS(Int)=  0.54894947
 Iteration 52 RMS(Cart)=  0.00034878 RMS(Int)=  0.54294734
 Iteration 53 RMS(Cart)=  0.00034819 RMS(Int)=  0.53641781
 Iteration 54 RMS(Cart)=  0.00034999 RMS(Int)=  0.52852156
 Iteration 55 RMS(Cart)=  0.00035716 RMS(Int)=  0.51131682
 Iteration 56 RMS(Cart)=  0.00039976 RMS(Int)=  0.59859716
 Iteration 57 RMS(Cart)=  0.00572208 RMS(Int)=  0.59432355
 Iteration 58 RMS(Cart)=  0.00112395 RMS(Int)=  0.52478159
 Iteration 59 RMS(Cart)=  0.00142208 RMS(Int)=  0.49759822
 Iteration 60 RMS(Cart)=  0.00051372 RMS(Int)=  0.48974850
 Iteration 61 RMS(Cart)=  0.00042055 RMS(Int)=  0.48340564
 Iteration 62 RMS(Cart)=  0.00038719 RMS(Int)=  0.47756114
 Iteration 63 RMS(Cart)=  0.00037075 RMS(Int)=  0.47193065
 Iteration 64 RMS(Cart)=  0.00036153 RMS(Int)=  0.46638446
 Iteration 65 RMS(Cart)=  0.00035621 RMS(Int)=  0.46083829
 Iteration 66 RMS(Cart)=  0.00035341 RMS(Int)=  0.45521432
 Iteration 67 RMS(Cart)=  0.00035257 RMS(Int)=  0.44941114
 Iteration 68 RMS(Cart)=  0.00035367 RMS(Int)=  0.44324818
 Iteration 69 RMS(Cart)=  0.00035706 RMS(Int)=  0.43627647
 Iteration 70 RMS(Cart)=  0.00036458 RMS(Int)=  0.42647373
 Iteration 71 RMS(Cart)=  0.00038535 RMS(Int)=  0.66331546
 Iteration 72 RMS(Cart)=  0.00399203 RMS(Int)=  0.66091631
 Iteration 73 RMS(Cart)=  0.00083706 RMS(Int)=  0.59104219
 Iteration 74 RMS(Cart)=  0.00039742 RMS(Int)=  0.58490695
 Iteration 75 RMS(Cart)=  0.00037392 RMS(Int)=  0.57911307
 Iteration 76 RMS(Cart)=  0.00036023 RMS(Int)=  0.57348651
 Iteration 77 RMS(Cart)=  0.00035143 RMS(Int)=  0.56793325
 Iteration 78 RMS(Cart)=  0.00034547 RMS(Int)=  0.56238684
 Iteration 79 RMS(Cart)=  0.00034140 RMS(Int)=  0.55678514
 Iteration 80 RMS(Cart)=  0.00033879 RMS(Int)=  0.55105091
 Iteration 81 RMS(Cart)=  0.00033745 RMS(Int)=  0.54505938
 Iteration 82 RMS(Cart)=  0.00033768 RMS(Int)=  0.53854584
 Iteration 83 RMS(Cart)=  0.00034022 RMS(Int)=  0.53068393
 Iteration 84 RMS(Cart)=  0.00034803 RMS(Int)=  0.51383943
 Iteration 85 RMS(Cart)=  0.00039009 RMS(Int)=  0.59598276
 Iteration 86 RMS(Cart)=  0.00557435 RMS(Int)=  0.59176196
 Iteration 87 RMS(Cart)=  0.00109865 RMS(Int)=  0.52216067
 Iteration 88 RMS(Cart)=  0.00132461 RMS(Int)=  0.49716854
 Iteration 89 RMS(Cart)=  0.00050074 RMS(Int)=  0.48946451
 Iteration 90 RMS(Cart)=  0.00041449 RMS(Int)=  0.48316655
 Iteration 91 RMS(Cart)=  0.00038309 RMS(Int)=  0.47734202
 Iteration 92 RMS(Cart)=  0.00036755 RMS(Int)=  0.47172076
 Iteration 93 RMS(Cart)=  0.00035888 RMS(Int)=  0.46617717
 Iteration 94 RMS(Cart)=  0.00035394 RMS(Int)=  0.46062789
 Iteration 95 RMS(Cart)=  0.00035146 RMS(Int)=  0.45499406
 Iteration 96 RMS(Cart)=  0.00035095 RMS(Int)=  0.44917028
 Iteration 97 RMS(Cart)=  0.00035227 RMS(Int)=  0.44296445
 Iteration 98 RMS(Cart)=  0.00035601 RMS(Int)=  0.43588215
 Iteration 99 RMS(Cart)=  0.00036416 RMS(Int)=  0.42549822
 Iteration100 RMS(Cart)=  0.00038773 RMS(Int)=  0.67347692
 New curvilinear step not converged.
 ITry= 3 IFail=1 DXMaxC= 5.07D-02 DCOld= 1.00D+10 DXMaxT= 3.00D-01 DXLimC= 3.00D+00 Rises=F
 Iteration  1 RMS(Cart)=  0.00387971 RMS(Int)=  1.07084169
 Iteration  2 RMS(Cart)=  0.03482664 RMS(Int)=  1.05791573
 Iteration  3 RMS(Cart)=  0.00482421 RMS(Int)=  0.99107493
 Iteration  4 RMS(Cart)=  0.00518467 RMS(Int)=  0.92198642
 Iteration  5 RMS(Cart)=  0.00523087 RMS(Int)=  0.85430941
 Iteration  6 RMS(Cart)=  0.00493096 RMS(Int)=  0.78972874
 Iteration  7 RMS(Cart)=  0.00428868 RMS(Int)=  0.73158779
 Iteration  8 RMS(Cart)=  0.00334273 RMS(Int)=  0.68513252
 Iteration  9 RMS(Cart)=  0.00220241 RMS(Int)=  0.65506006
 Iteration 10 RMS(Cart)=  0.00122727 RMS(Int)=  0.63908397
 Iteration 11 RMS(Cart)=  0.00074882 RMS(Int)=  0.62953514
 Iteration 12 RMS(Cart)=  0.00057254 RMS(Int)=  0.62218911
 Iteration 13 RMS(Cart)=  0.00049491 RMS(Int)=  0.61574011
 Iteration 14 RMS(Cart)=  0.00045240 RMS(Int)=  0.60973436
 Iteration 15 RMS(Cart)=  0.00042539 RMS(Int)=  0.60397168
 Iteration 16 RMS(Cart)=  0.00040648 RMS(Int)=  0.59834452
 Iteration 17 RMS(Cart)=  0.00039236 RMS(Int)=  0.59278376
 Iteration 18 RMS(Cart)=  0.00038139 RMS(Int)=  0.58723556
 Iteration 19 RMS(Cart)=  0.00037267 RMS(Int)=  0.58164792
 Iteration 20 RMS(Cart)=  0.00036572 RMS(Int)=  0.57595753
 Iteration 21 RMS(Cart)=  0.00036033 RMS(Int)=  0.57006796
 Iteration 22 RMS(Cart)=  0.00035644 RMS(Int)=  0.56379447
 Iteration 23 RMS(Cart)=  0.00035459 RMS(Int)=  0.55665825
 Iteration 24 RMS(Cart)=  0.00035620 RMS(Int)=  0.54638569
 Iteration 25 RMS(Cart)=  0.00036904 RMS(Int)=  0.54908203
 Iteration 26 RMS(Cart)=  0.00445091 RMS(Int)=  0.54687950
 Iteration 27 RMS(Cart)=  0.00085851 RMS(Int)=  0.47836850
 Iteration 28 RMS(Cart)=  0.00075333 RMS(Int)=  0.46402878
 Iteration 29 RMS(Cart)=  0.00041002 RMS(Int)=  0.45694549
 Iteration 30 RMS(Cart)=  0.00035679 RMS(Int)=  0.45085243
 Iteration 31 RMS(Cart)=  0.00033606 RMS(Int)=  0.44511859
 Iteration 32 RMS(Cart)=  0.00032583 RMS(Int)=  0.43953527
 Iteration 33 RMS(Cart)=  0.00032042 RMS(Int)=  0.43399458
 Iteration 34 RMS(Cart)=  0.00031779 RMS(Int)=  0.42841545
 Iteration 35 RMS(Cart)=  0.00031708 RMS(Int)=  0.42270942
 Iteration 36 RMS(Cart)=  0.00031809 RMS(Int)=  0.41674051
 Iteration 37 RMS(Cart)=  0.00032089 RMS(Int)=  0.41022095
 Iteration 38 RMS(Cart)=  0.00032648 RMS(Int)=  0.40221310
 Iteration 39 RMS(Cart)=  0.00033866 RMS(Int)=  0.38144080
 Iteration 40 RMS(Cart)=  0.00040631 RMS(Int)=  0.72915169
 Iteration 41 RMS(Cart)=  0.00584738 RMS(Int)=  0.72370323
 Iteration 42 RMS(Cart)=  0.00132036 RMS(Int)=  0.65417354
 Iteration 43 RMS(Cart)=  0.00105396 RMS(Int)=  0.63611019
 Iteration 44 RMS(Cart)=  0.00055677 RMS(Int)=  0.62743719
 Iteration 45 RMS(Cart)=  0.00044146 RMS(Int)=  0.62063514
 Iteration 46 RMS(Cart)=  0.00039587 RMS(Int)=  0.61451180
 Iteration 47 RMS(Cart)=  0.00037177 RMS(Int)=  0.60870903
 Iteration 48 RMS(Cart)=  0.00035685 RMS(Int)=  0.60307069
 Iteration 49 RMS(Cart)=  0.00034671 RMS(Int)=  0.59750869
 Iteration 50 RMS(Cart)=  0.00033945 RMS(Int)=  0.59195985
 Iteration 51 RMS(Cart)=  0.00033413 RMS(Int)=  0.58636554
 Iteration 52 RMS(Cart)=  0.00033031 RMS(Int)=  0.58065473
 Iteration 53 RMS(Cart)=  0.00032781 RMS(Int)=  0.57471658
 Iteration 54 RMS(Cart)=  0.00032667 RMS(Int)=  0.56832824
 Iteration 55 RMS(Cart)=  0.00032759 RMS(Int)=  0.56085619
 Iteration 56 RMS(Cart)=  0.00033257 RMS(Int)=  0.54829211
 Iteration 57 RMS(Cart)=  0.00035564 RMS(Int)=  0.55825390
 Iteration 58 RMS(Cart)=  0.00490005 RMS(Int)=  0.55497323
 Iteration 59 RMS(Cart)=  0.00095697 RMS(Int)=  0.48579841
 Iteration 60 RMS(Cart)=  0.00104002 RMS(Int)=  0.46521462
 Iteration 61 RMS(Cart)=  0.00044217 RMS(Int)=  0.45777876
 Iteration 62 RMS(Cart)=  0.00037398 RMS(Int)=  0.45156503
 Iteration 63 RMS(Cart)=  0.00034843 RMS(Int)=  0.44577622
 Iteration 64 RMS(Cart)=  0.00033576 RMS(Int)=  0.44016903
 Iteration 65 RMS(Cart)=  0.00032880 RMS(Int)=  0.43462568
 Iteration 66 RMS(Cart)=  0.00032501 RMS(Int)=  0.42906421
 Iteration 67 RMS(Cart)=  0.00032334 RMS(Int)=  0.42340260
 Iteration 68 RMS(Cart)=  0.00032346 RMS(Int)=  0.41752494
 Iteration 69 RMS(Cart)=  0.00032530 RMS(Int)=  0.41120729
 Iteration 70 RMS(Cart)=  0.00032956 RMS(Int)=  0.40382191
 Iteration 71 RMS(Cart)=  0.00033869 RMS(Int)=  0.39140980
 Iteration 72 RMS(Cart)=  0.00036961 RMS(Int)=  0.71529285
 Iteration 73 RMS(Cart)=  0.00504009 RMS(Int)=  0.71134682
 Iteration 74 RMS(Cart)=  0.00110279 RMS(Int)=  0.64162464
 Iteration 75 RMS(Cart)=  0.00065702 RMS(Int)=  0.63075351
 Iteration 76 RMS(Cart)=  0.00045740 RMS(Int)=  0.62345072
 Iteration 77 RMS(Cart)=  0.00039654 RMS(Int)=  0.61713888
 Iteration 78 RMS(Cart)=  0.00036811 RMS(Int)=  0.61124923
 Iteration 79 RMS(Cart)=  0.00035173 RMS(Int)=  0.60556925
 Iteration 80 RMS(Cart)=  0.00034114 RMS(Int)=  0.59999111
 Iteration 81 RMS(Cart)=  0.00033381 RMS(Int)=  0.59444435
 Iteration 82 RMS(Cart)=  0.00032860 RMS(Int)=  0.58886920
 Iteration 83 RMS(Cart)=  0.00032492 RMS(Int)=  0.58319897
 Iteration 84 RMS(Cart)=  0.00032255 RMS(Int)=  0.57733660
 Iteration 85 RMS(Cart)=  0.00032145 RMS(Int)=  0.57110041
 Iteration 86 RMS(Cart)=  0.00032216 RMS(Int)=  0.56402614
 Iteration 87 RMS(Cart)=  0.00032608 RMS(Int)=  0.55396104
 Iteration 88 RMS(Cart)=  0.00034067 RMS(Int)=  0.53917052
 Iteration 89 RMS(Cart)=  0.00389094 RMS(Int)=  0.53712193
 Iteration 90 RMS(Cart)=  0.00075919 RMS(Int)=  0.46837717
 Iteration 91 RMS(Cart)=  0.00046269 RMS(Int)=  0.46008677
 Iteration 92 RMS(Cart)=  0.00036636 RMS(Int)=  0.45369825
 Iteration 93 RMS(Cart)=  0.00033727 RMS(Int)=  0.44784979
 Iteration 94 RMS(Cart)=  0.00032426 RMS(Int)=  0.44222090
 Iteration 95 RMS(Cart)=  0.00031766 RMS(Int)=  0.43667340
 Iteration 96 RMS(Cart)=  0.00031441 RMS(Int)=  0.43111893
 Iteration 97 RMS(Cart)=  0.00031331 RMS(Int)=  0.42547468
 Iteration 98 RMS(Cart)=  0.00031389 RMS(Int)=  0.41962900
 Iteration 99 RMS(Cart)=  0.00031623 RMS(Int)=  0.41337332
 Iteration100 RMS(Cart)=  0.00032079 RMS(Int)=  0.40614785
 New curvilinear step not converged.
 ITry= 4 IFail=1 DXMaxC= 4.49D-02 DCOld= 1.00D+10 DXMaxT= 3.00D-01 DXLimC= 3.00D+00 Rises=F
 Iteration  1 RMS(Cart)=  0.00344013 RMS(Int)=  1.09814981
 Iteration  2 RMS(Cart)=  0.03086563 RMS(Int)=  1.08582558
 Iteration  3 RMS(Cart)=  0.00442876 RMS(Int)=  1.01887263
 Iteration  4 RMS(Cart)=  0.00479405 RMS(Int)=  0.94958467
 Iteration  5 RMS(Cart)=  0.00483254 RMS(Int)=  0.88169715
 Iteration  6 RMS(Cart)=  0.00454423 RMS(Int)=  0.81704567
 Iteration  7 RMS(Cart)=  0.00393211 RMS(Int)=  0.75921672
 Iteration  8 RMS(Cart)=  0.00303264 RMS(Int)=  0.71367110
 Iteration  9 RMS(Cart)=  0.00196350 RMS(Int)=  0.68484909
 Iteration 10 RMS(Cart)=  0.00108552 RMS(Int)=  0.66966428
 Iteration 11 RMS(Cart)=  0.00067478 RMS(Int)=  0.66039136
 Iteration 12 RMS(Cart)=  0.00052349 RMS(Int)=  0.65314429
 Iteration 13 RMS(Cart)=  0.00045552 RMS(Int)=  0.64673761
 Iteration 14 RMS(Cart)=  0.00041772 RMS(Int)=  0.64075152
 Iteration 15 RMS(Cart)=  0.00039344 RMS(Int)=  0.63499750
 Iteration 16 RMS(Cart)=  0.00037631 RMS(Int)=  0.62937269
 Iteration 17 RMS(Cart)=  0.00036346 RMS(Int)=  0.62380992
 Iteration 18 RMS(Cart)=  0.00035344 RMS(Int)=  0.61825597
 Iteration 19 RMS(Cart)=  0.00034547 RMS(Int)=  0.61265839
 Iteration 20 RMS(Cart)=  0.00033911 RMS(Int)=  0.60695209
 Iteration 21 RMS(Cart)=  0.00033418 RMS(Int)=  0.60103596
 Iteration 22 RMS(Cart)=  0.00033066 RMS(Int)=  0.59471205
 Iteration 23 RMS(Cart)=  0.00032910 RMS(Int)=  0.58744944
 Iteration 24 RMS(Cart)=  0.00033098 RMS(Int)=  0.57647463
 Iteration 25 RMS(Cart)=  0.00034512 RMS(Int)=  0.52499026
 Iteration 26 RMS(Cart)=  0.00450784 RMS(Int)=  0.52241605
 Iteration 27 RMS(Cart)=  0.00087250 RMS(Int)=  0.45368929
 Iteration 28 RMS(Cart)=  0.00094827 RMS(Int)=  0.43335190
 Iteration 29 RMS(Cart)=  0.00040563 RMS(Int)=  0.42595696
 Iteration 30 RMS(Cart)=  0.00034440 RMS(Int)=  0.41975479
 Iteration 31 RMS(Cart)=  0.00032138 RMS(Int)=  0.41396922
 Iteration 32 RMS(Cart)=  0.00030998 RMS(Int)=  0.40836152
 Iteration 33 RMS(Cart)=  0.00030375 RMS(Int)=  0.40281526
 Iteration 34 RMS(Cart)=  0.00030040 RMS(Int)=  0.39724860
 Iteration 35 RMS(Cart)=  0.00029898 RMS(Int)=  0.39157868
 Iteration 36 RMS(Cart)=  0.00029915 RMS(Int)=  0.38568701
 Iteration 37 RMS(Cart)=  0.00030102 RMS(Int)=  0.37934127
 Iteration 38 RMS(Cart)=  0.00030513 RMS(Int)=  0.37187665
 Iteration 39 RMS(Cart)=  0.00031394 RMS(Int)=  0.35878488
 Iteration 40 RMS(Cart)=  0.00034534 RMS(Int)=  0.74869185
 Iteration 41 RMS(Cart)=  0.00477250 RMS(Int)=  0.74462829
 Iteration 42 RMS(Cart)=  0.00105468 RMS(Int)=  0.67481976
 Iteration 43 RMS(Cart)=  0.00065278 RMS(Int)=  0.66313313
 Iteration 44 RMS(Cart)=  0.00043617 RMS(Int)=  0.65564978
 Iteration 45 RMS(Cart)=  0.00037373 RMS(Int)=  0.64926470
 Iteration 46 RMS(Cart)=  0.00034530 RMS(Int)=  0.64333638
 Iteration 47 RMS(Cart)=  0.00032913 RMS(Int)=  0.63763396
 Iteration 48 RMS(Cart)=  0.00031873 RMS(Int)=  0.63204324
 Iteration 49 RMS(Cart)=  0.00031154 RMS(Int)=  0.62649152
 Iteration 50 RMS(Cart)=  0.00030641 RMS(Int)=  0.62091892
 Iteration 51 RMS(Cart)=  0.00030275 RMS(Int)=  0.61526063
 Iteration 52 RMS(Cart)=  0.00030033 RMS(Int)=  0.60942509
 Iteration 53 RMS(Cart)=  0.00029906 RMS(Int)=  0.60324608
 Iteration 54 RMS(Cart)=  0.00029941 RMS(Int)=  0.59631709
 Iteration 55 RMS(Cart)=  0.00030246 RMS(Int)=  0.58694603
 Iteration 56 RMS(Cart)=  0.00031361 RMS(Int)=  0.46706338
 Iteration 57 RMS(Cart)=  0.00137614 RMS(Int)=  0.46557803
 Iteration 58 RMS(Cart)=  0.00029078 RMS(Int)=  0.39512221
 Iteration 59 RMS(Cart)=  0.00028217 RMS(Int)=  0.38926894
 Iteration 60 RMS(Cart)=  0.00028494 RMS(Int)=  0.38299417
 Iteration 61 RMS(Cart)=  0.00028980 RMS(Int)=  0.37570708
 Iteration 62 RMS(Cart)=  0.00029888 RMS(Int)=  0.36391543
 Iteration 63 RMS(Cart)=  0.00032595 RMS(Int)=  0.74159880
 Iteration 64 RMS(Cart)=  0.00436441 RMS(Int)=  0.73805123
 Iteration 65 RMS(Cart)=  0.00095253 RMS(Int)=  0.66817873
 Iteration 66 RMS(Cart)=  0.00050051 RMS(Int)=  0.65933780
 Iteration 67 RMS(Cart)=  0.00039211 RMS(Int)=  0.65253711
 Iteration 68 RMS(Cart)=  0.00035214 RMS(Int)=  0.64642699
 Iteration 69 RMS(Cart)=  0.00033172 RMS(Int)=  0.64063476
 Iteration 70 RMS(Cart)=  0.00031939 RMS(Int)=  0.63500201
 Iteration 71 RMS(Cart)=  0.00031121 RMS(Int)=  0.62943994
 Iteration 72 RMS(Cart)=  0.00030549 RMS(Int)=  0.62388429
 Iteration 73 RMS(Cart)=  0.00030145 RMS(Int)=  0.61827404
 Iteration 74 RMS(Cart)=  0.00029870 RMS(Int)=  0.61253282
 Iteration 75 RMS(Cart)=  0.00029707 RMS(Int)=  0.60653695
 Iteration 76 RMS(Cart)=  0.00029683 RMS(Int)=  0.60002460
 Iteration 77 RMS(Cart)=  0.00029860 RMS(Int)=  0.59218291
 Iteration 78 RMS(Cart)=  0.00030487 RMS(Int)=  0.57571039
 Iteration 79 RMS(Cart)=  0.00033951 RMS(Int)=  0.53358571
 Iteration 80 RMS(Cart)=  0.00484674 RMS(Int)=  0.52953640
 Iteration 81 RMS(Cart)=  0.00096158 RMS(Int)=  0.45996599
 Iteration 82 RMS(Cart)=  0.00116870 RMS(Int)=  0.43434666
 Iteration 83 RMS(Cart)=  0.00043541 RMS(Int)=  0.42661234
 Iteration 84 RMS(Cart)=  0.00036003 RMS(Int)=  0.42029705
 Iteration 85 RMS(Cart)=  0.00033260 RMS(Int)=  0.41445941
 Iteration 86 RMS(Cart)=  0.00031900 RMS(Int)=  0.40882766
 Iteration 87 RMS(Cart)=  0.00031138 RMS(Int)=  0.40327571
 Iteration 88 RMS(Cart)=  0.00030701 RMS(Int)=  0.39772015
 Iteration 89 RMS(Cart)=  0.00030475 RMS(Int)=  0.39208229
 Iteration 90 RMS(Cart)=  0.00030416 RMS(Int)=  0.38625737
 Iteration 91 RMS(Cart)=  0.00030526 RMS(Int)=  0.38005469
 Iteration 92 RMS(Cart)=  0.00030837 RMS(Int)=  0.37298546
 Iteration 93 RMS(Cart)=  0.00031526 RMS(Int)=  0.36267057
 Iteration 94 RMS(Cart)=  0.00033523 RMS(Int)=  0.73547981
 Iteration 95 RMS(Cart)=  0.00403152 RMS(Int)=  0.73273937
 Iteration 96 RMS(Cart)=  0.00086670 RMS(Int)=  0.66275732
 Iteration 97 RMS(Cart)=  0.00041856 RMS(Int)=  0.65538319
 Iteration 98 RMS(Cart)=  0.00036137 RMS(Int)=  0.64905428
 Iteration 99 RMS(Cart)=  0.00033548 RMS(Int)=  0.64315833
 Iteration100 RMS(Cart)=  0.00032086 RMS(Int)=  0.63747470
 New curvilinear step not converged.
 ITry= 5 IFail=1 DXMaxC= 3.57D-02 DCOld= 1.00D+10 DXMaxT= 3.00D-01 DXLimC= 3.00D+00 Rises=F
 New curvilinear step failed, DQL= 3.13D+00 SP=-4.16D-01.
 ITry= 6 IFail=1 DXMaxC= 0.00D+00 DCOld= 1.00D+10 DXMaxT= 3.00D-01 DXLimC= 3.00D+00 Rises=F
 New curvilinear step failed, DQL= 3.13D+00 SP=-8.37D-01.
 ITry= 7 IFail=1 DXMaxC= 0.00D+00 DCOld= 1.00D+10 DXMaxT= 3.00D-01 DXLimC= 3.00D+00 Rises=F
 New curvilinear step failed, DQL= 3.13D+00 SP=-9.47D-01.
 ITry= 8 IFail=1 DXMaxC= 0.00D+00 DCOld= 1.00D+10 DXMaxT= 3.00D-01 DXLimC= 3.00D+00 Rises=F
 New curvilinear step failed, DQL= 3.13D+00 SP=-9.64D-01.
 ITry= 9 IFail=1 DXMaxC= 0.00D+00 DCOld= 1.00D+10 DXMaxT= 3.00D-01 DXLimC= 3.00D+00 Rises=F
 New curvilinear step failed, DQL= 3.13D+00 SP=-9.76D-01.
 ITry=10 IFail=1 DXMaxC= 0.00D+00 DCOld= 1.00D+10 DXMaxT= 3.00D-01 DXLimC= 3.00D+00 Rises=F
 RedQX1 iteration     1 Try  1 RMS(Cart)=  0.01042967 RMS(Int)=  0.98811416 XScale=  0.11934301
 RedQX1 iteration     2 Try  1 RMS(Cart)=  0.00208593 RMS(Int)=  0.98975686 XScale=  0.11921317
 RedQX1 iteration     3 Try  1 RMS(Cart)=  0.00041719 RMS(Int)=  0.98987193 XScale=  0.11921027
 RedQX1 iteration     4 Try  1 RMS(Cart)=  0.00008344 RMS(Int)=  0.13191192 XScale=315.29959268
 RedQX1 iteration     4 Try  2 RMS(Cart)=  0.00008344 RMS(Int)=  0.97272703 XScale=  0.12108465
 RedQX1 iteration     5 Try  1 RMS(Cart)=  0.00008330 RMS(Int)=  0.97208743 XScale=  0.12115566
 RedQX1 iteration     6 Try  1 RMS(Cart)=  0.00001666 RMS(Int)=  0.13170668 XScale=208.16990520
 RedQX1 iteration     6 Try  2 RMS(Cart)=  0.00001666 RMS(Int)=  0.13135725 XScale=131.25374320
 RedQX1 iteration     6 Try  3 RMS(Cart)=  0.00001666 RMS(Int)=  0.13062145 XScale= 73.44648514
 RedQX1 iteration     6 Try  4 RMS(Cart)=  0.00001666 RMS(Int)=  0.12802338 XScale= 28.56418757
 RedQX1 iteration     6 Try  5 RMS(Cart)=  0.00001666 RMS(Int)=  0.97217274 XScale=  0.12114618
 RedQX1 iteration     7 Try  1 RMS(Cart)=  0.00001664 RMS(Int)=  0.97206663 XScale=  0.12115797
 RedQX1 iteration     8 Try  1 RMS(Cart)=  0.00000333 RMS(Int)=  0.12644447 XScale= 20.79793738
 RedQX1 iteration     8 Try  2 RMS(Cart)=  0.00000333 RMS(Int)=  0.12323256 XScale= 13.36959646
 RedQX1 iteration     8 Try  3 RMS(Cart)=  0.00000333 RMS(Int)=  0.11314654 XScale=  6.25810841
 RedQX1 iteration     8 Try  4 RMS(Cart)=  0.00000333 RMS(Int)=  0.78831303 XScale=  0.14571899
 RedQX1 iteration     9 Try  1 RMS(Cart)=  0.00000333 RMS(Int)=  0.78795562 XScale=  0.14577649
 RedQX1 iteration    10 Try  1 RMS(Cart)=  0.00000067 RMS(Int)=  0.10785660 XScale=  4.87398732
 RedQX1 iteration    10 Try  2 RMS(Cart)=  0.00000067 RMS(Int)=  0.09869211 XScale=  3.50248916
 RedQX1 iteration    10 Try  3 RMS(Cart)=  0.00000067 RMS(Int)=  0.07945232 XScale=  2.14611363
 RedQX1 iteration    10 Try  4 RMS(Cart)=  0.00000067 RMS(Int)=  0.06503584 XScale=  0.82609254
 RedQX1 iteration    11 Try  1 RMS(Cart)=  0.00000067 RMS(Int)=  0.06503025 XScale=  0.82614101
 RedQX1 iteration    12 Try  1 RMS(Cart)=  0.00000013 RMS(Int)=  0.07304361 XScale=  1.87762637
 RedQX1 iteration    12 Try  2 RMS(Cart)=  0.00000013 RMS(Int)=  0.06541743 XScale=  1.61052523
 RedQX1 iteration    12 Try  3 RMS(Cart)=  0.00000013 RMS(Int)=  0.05716667 XScale=  1.34538523
 RedQX1 iteration    12 Try  4 RMS(Cart)=  0.00000013 RMS(Int)=  0.05227980 XScale=  1.08332433
 RedQX1 iteration    12 Try  5 RMS(Cart)=  0.00000013 RMS(Int)=  0.06495688 XScale=  0.82677838
 RedQX1 iteration    13 Try  1 RMS(Cart)=  0.00000013 RMS(Int)=  0.06495658 XScale=  0.82678097
 RedQX1 iteration    14 Try  1 RMS(Cart)=  0.00000003 RMS(Int)=  0.05271563 XScale=  1.03147095
 B after Tr=    -0.000000    0.000000    0.000000
         Rot=    1.000000   -0.000000   -0.000000    0.000000 Ang=   0.00 deg.
 Variable       Old X    -DE/DX   Delta X   Delta X   Delta X     New X
                                 (Linear)    (Quad)   (Total)
    R1        2.06454   0.01667   0.00019   0.09337   0.00029   2.06483
    R2        2.02829   0.00079  -0.00003  -0.00020  -0.00000   2.02829
    R3        2.03441  -0.00005  -0.00034  -0.00991  -0.00003   2.03438
    A1        1.60644   0.00590   0.01062  -0.03088  -0.00007   1.60636
    A2        1.53501   0.01607   0.01338   0.05982   0.00022   1.53523
[...]
                 (A') (A') (A') (A") (A') (A') (A') (A')
 Initial guess <Sx>= 0.0000 <Sy>= 0.0000 <Sz>= 0.5000 <S**2>= 0.7567 S= 0.5033
 Keep R1 and R2 ints in memory in symmetry-blocked form, NReq=21658328.
 Requested convergence on RMS density matrix=1.00D-08 within 900 cycles.
 Requested convergence on MAX density matrix=1.00D-06.
 Requested convergence on             energy=1.00D-06.
 No special actions if energy rises.
 SCF Done:  E(UM062X) =  -39.7663855442     A.U. after    5 cycles
            NFock=  5  Conv=0.41D-08     -V/T= 2.0063
 <Sx>= 0.0000 <Sy>= 0.0000 <Sz>= 0.5000 <S**2>= 0.7567 S= 0.5033
 <L.S>= 0.000000000000E+00
 Annihilation of the first spin contaminant:
 S**2 before annihilation     0.7567,   after     0.7500
 Calling FoFJK, ICntrl=      2127 FMM=F ISym2X=1 I1Cent= 0 IOpClX= 1 NMat=1 NMatS=1 NMatT=0.
 ***** Axes restored to original set *****
 -------------------------------------------------------------------
 Center     Atomic                   Forces (Hartrees/Bohr)
 Number     Number              X              Y              Z
 -------------------------------------------------------------------
      1        6           0.018604409    0.029077823   -0.080255640
      2        1          -0.000054975    0.000024743    0.000022492
      3        1          -0.009412675   -0.014503566    0.040200898
      4        1          -0.009136759   -0.014599000    0.040032250
 -------------------------------------------------------------------
 Cartesian Forces:  Max     0.080255640 RMS     0.030885369

 GradGradGradGradGradGradGradGradGradGradGradGradGradGradGradGradGradGrad
 Berny optimization.
 Using GDIIS optimizer.
 FormGI is forming the generalized inverse of G from B-inverse, IUseBI=4.
 Internal  Forces:  Max     0.059120254 RMS     0.025606796
 Search for a local minimum.
 Step number 100 out of a maximum of  100
 All quantities printed in internal units (Hartrees-Bohrs-Radians)
 Swapping is turned off.
 Update second derivatives using D2CorX and points   92   93   94   95   96
                                                     97   98   99  100
 DE=  1.26D-08 DEPred=-1.33D-08 R=-9.43D-01
 Trust test=-9.43D-01 RLast= 2.56D-04 DXMaxT set to 5.00D-02
 The second derivative matrix:
                          R1        R2        R3        A1        A2
           R1           0.28260
           R2           0.00852   0.38382
           R3           0.00856  -0.00848   0.37664
           A1           0.01666  -0.01661  -0.06102 -11.97046
           A2           0.01647  -0.03687  -0.04061 -12.11360 -11.97151
           A3           0.03313  -0.05348  -0.10162 -24.08407 -24.08511
           A4          -0.00051  -0.00304   0.01526   1.86281   1.86287
           D1          -0.00001   0.00006   0.00008   0.02113   0.02113
                          A3        A4        D1
           A3         -48.16918
           A4           3.72568   0.25519
           D1           0.04225  -0.00347  -0.00004
 ITU= -1 -1 -1  0 -1  0 -1 -1  0
     Eigenvalues ---  -72.25410   0.00000   0.14095   0.28103   0.37290
     Eigenvalues ---    0.39109
 Eigenvalue     2 is   7.35D-08 Eigenvector:
                          D1        A3        A1        A2        R1
   1                   -1.00000  -0.00058  -0.00030  -0.00029   0.00008
                          R2        R3        A4
   1                    0.00004  -0.00004   0.00000
 Cut down GDIIS permanently because of the redundancy. E 1
 DIIS coeff's:      2.36206     -1.36206
 Cosine:  1.000 >  0.970
 Length:  1.000
 GDIIS step was calculated using  2 of the last  9 vectors.
 Iteration  1 RMS(Cart)=  0.00042895 RMS(Int)=  0.00175445
 SLEqS3 Cycle:    33 Max:0.861807E-03 RMS: 337.313     Conv:0.745571E-03
 New curvilinear step failed, DQL= 3.14D+00 SP=-2.38D-01.
 ITry= 1 IFail=1 DXMaxC= 9.46D-04 DCOld= 1.00D+10 DXMaxT= 5.00D-02 DXLimC= 3.00D+00 Rises=F
 Iteration  1 RMS(Cart)=  0.00038513 RMS(Int)=  0.00157172
 SLEqS3 Cycle:    33 Max:0.788647E-03 RMS: 272.268     Conv:0.600731E-03
 New curvilinear step failed, DQL= 3.14D+00 SP=-2.14D-01.
 ITry= 2 IFail=1 DXMaxC= 8.50D-04 DCOld= 1.00D+10 DXMaxT= 5.00D-02 DXLimC= 3.00D+00 Rises=F
 Iteration  1 RMS(Cart)=  0.00034131 RMS(Int)=  0.00139196
 SLEqS3 Cycle:    32 Max:0.713185E-03 RMS: 213.779     Conv:0.470826E-03
 New curvilinear step failed, DQL= 3.14D+00 SP=-1.89D-01.
 ITry= 3 IFail=1 DXMaxC= 7.54D-04 DCOld= 1.00D+10 DXMaxT= 5.00D-02 DXLimC= 3.00D+00 Rises=F
 Iteration  1 RMS(Cart)=  0.00029750 RMS(Int)=  0.00121486
 SLEqS3 Cycle:    32 Max:0.635248E-03 RMS: 162.084     Conv:0.356313E-03
 New curvilinear step failed, DQL= 3.14D+00 SP=-1.64D-01.
 ITry= 4 IFail=1 DXMaxC= 6.57D-04 DCOld= 1.00D+10 DXMaxT= 5.00D-02 DXLimC= 3.00D+00 Rises=F
 Iteration  1 RMS(Cart)=  0.00025370 RMS(Int)=  0.00104019
 SLEqS3 Cycle:    32 Max:0.554768E-03 RMS: 117.884     Conv:0.258658E-03
 New curvilinear step failed, DQL= 3.14D+00 SP=-1.39D-01.
 ITry= 5 IFail=1 DXMaxC= 5.61D-04 DCOld= 1.00D+10 DXMaxT= 5.00D-02 DXLimC= 3.00D+00 Rises=F
 Iteration  1 RMS(Cart)=  0.00020992 RMS(Int)=  0.00086772
 SLEqS3 Cycle:    32 Max:0.461987E-03 RMS: 80.3879     Conv:0.176045E-03
 New curvilinear step failed, DQL= 3.14D+00 SP=-1.14D-01.
 ITry= 6 IFail=1 DXMaxC= 4.65D-04 DCOld= 1.00D+10 DXMaxT= 5.00D-02 DXLimC= 3.00D+00 Rises=F
 Iteration  1 RMS(Cart)=  0.00016617 RMS(Int)=  0.00069734
 SLEqS3 Cycle:    29 Max:0.198687E-02 RMS:0.917585E-03 Conv:0.109580E-03
 Iteration  2 RMS(Cart)=  0.00019014 RMS(Int)=  0.00065665
 SLEqS3 Cycle:   121 Max:0.314960E-03 RMS:0.124382E-03 Conv:0.165744E-06
 SLEqS3 Cycle:   121 Max:0.196868E-02 RMS:0.910176E-03 Conv:0.165744E-06
 Iteration  3 RMS(Cart)=  0.00001697 RMS(Int)=  0.00065638
 SLEqS3 Cycle:   121 Max:0.196638E-02 RMS:0.910051E-03 Conv:0.193184E-08
 SLEqS3 Cycle:   121 Max:0.196641E-02 RMS:0.910061E-03 Conv:0.193184E-08
 Iteration  4 RMS(Cart)=  0.00000027 RMS(Int)=  0.00065638
 ITry= 7 IFail=0 DXMaxC= 1.19D-04 DCOld= 1.00D+10 DXMaxT= 5.00D-02 DXLimC= 3.00D+00 Rises=F
 ClnCor:  largest displacement from symmetrization is 1.67D-08 for atom     1.
 Variable       Old X    -DE/DX   Delta X   Delta X   Delta X     New X
                                 (Linear)    (Quad)   (Total)
    R1        2.11881  -0.00003  -0.00014   0.00023  -0.00005   2.11876
    R2        2.02838   0.00105  -0.00000   0.00247  -0.00000   2.02838
    R3        2.03448  -0.00132   0.00000  -0.00379   0.00000   2.03448
    A1        1.57079   0.02962  -0.00023   0.00064  -0.00014   1.57066
    A2        1.57080   0.02950   0.00023   0.00021   0.00014   1.57094
    A3        3.14159   0.05912  -0.00000   0.00085  -0.00000   3.14159
    A4        3.14159   0.00000   0.00000  -0.00000  -0.00000   3.14159
    D1        0.00000   0.00000   0.00000   0.05176  -0.00000   0.00000
         Item               Value     Threshold  Converged?
 Maximum Force            0.059120     0.000002     NO 
 RMS     Force            0.025607     0.000001     NO 
 Maximum Displacement     0.000119     0.000006     NO 
 RMS     Displacement     0.000076     0.000004     NO 
 Predicted change in Energy=-1.941944D-08
 Optimization stopped.
    -- Number of steps exceeded,  NStep= 100
    -- Flag reset to prevent archiving.
                           ----------------------------
                           ! Non-Optimized Parameters !
                           ! (Angstroms and Degrees)  !
 --------------------------                            --------------------------
 ! Name  Definition              Value          Derivative Info.                !
 --------------------------------------------------------------------------------
 ! R1    R(1,2)                  1.1212         -DE/DX =    0.0                 !
 ! R2    R(1,3)                  1.0734         -DE/DX =    0.001               !
 ! R3    R(1,4)                  1.0766         -DE/DX =   -0.0013              !
 ! A1    A(2,1,3)               89.992          -DE/DX =    0.0296              !
 ! A2    A(2,1,4)               90.008          -DE/DX =    0.0295              !
 ! A3    L(3,1,4,2,-1)         179.9999         -DE/DX =    0.0591              !
 ! A4    L(3,1,4,2,-2)         180.0            -DE/DX =    0.0                 !
 ! D1    D(2,1,4,3)              0.0            -DE/DX =    0.0                 !
 --------------------------------------------------------------------------------
 GradGradGradGradGradGradGradGradGradGradGradGradGradGradGradGradGradGrad

                          Input orientation:                          
 ---------------------------------------------------------------------
 Center     Atomic      Atomic             Coordinates (Angstroms)
 Number     Number       Type             X           Y           Z
 ---------------------------------------------------------------------
      1          6           0        2.567306    2.686232   -2.178501
      2          1           0        2.830786    3.042972   -3.208286
      3          1           0        3.457743    2.087195   -2.158199
      4          1           0        1.674195    3.287070   -2.198864
 ---------------------------------------------------------------------
                    Distance matrix (angstroms):
                    1          2          3          4
     1  C    0.000000
     2  H    1.121223   0.000000
     3  H    1.073375   1.552181   0.000000
     4  H    1.076601   1.554419   2.149976   0.000000
 Stoichiometry    CH3(2)
 Framework group  CS[SG(CH3)]
 Deg. of freedom     5
 Full point group                 CS      NOp   2
 Largest Abelian subgroup         CS      NOp   2
 Largest concise Abelian subgroup C1      NOp   1
                         Standard orientation:                         
 ---------------------------------------------------------------------
 Center     Atomic      Atomic             Coordinates (Angstroms)
 Number     Number       Type             X           Y           Z
 ---------------------------------------------------------------------
      1          6           0        0.000000   -0.124581    0.000000
      2          1           0       -0.003226    0.996638   -0.000000
      3          1           0       -1.073371   -0.127664    0.000000
      4          1           0        1.076596   -0.121488   -0.000000
 ---------------------------------------------------------------------
 Rotational constants (GHZ):         427.5678016         216.9672137         143.9304186

 **********************************************************************

            Population analysis using the SCF density.

 **********************************************************************

 Orbital symmetries:
 Alpha Orbitals:
       Occupied  (A') (A') (A') (A') (A")
       Virtual   (A') (A') (A') (A') (A") (A') (A') (A') (A') (A')
                 (A") (A') (A") (A') (A") (A') (A') (A") (A') (A')
                 (A') (A") (A') (A') (A") (A') (A') (A') (A") (A')
                 (A') (A") (A') (A") (A') (A") (A') (A') (A') (A")
                 (A') (A") (A") (A') (A') (A') (A') (A') (A") (A")
                 (A") (A") (A') (A') (A') (A") (A') (A") (A') (A')
                 (A') (A') (A") (A') (A') (A') (A')
 Beta  Orbitals:
       Occupied  (A') (A') (A') (A')
       Virtual   (A") (A') (A') (A') (A') (A') (A") (A') (A') (A')
                 (A') (A") (A') (A") (A') (A") (A') (A") (A') (A')
                 (A') (A") (A') (A') (A') (A') (A") (A') (A') (A")
                 (A') (A') (A') (A") (A") (A') (A") (A') (A') (A")
                 (A') (A') (A") (A") (A') (A') (A') (A') (A') (A")
                 (A") (A") (A") (A') (A') (A') (A') (A") (A") (A')
                 (A') (A') (A') (A") (A') (A') (A') (A')
 The electronic state is 2-A".
 Alpha  occ. eigenvalues --  -10.54889  -0.79098  -0.54034  -0.40591  -0.29115
 Alpha virt. eigenvalues --    0.07519   0.11432   0.13203   0.26399   0.35934
 Alpha virt. eigenvalues --    0.38049   0.44486   0.49090   0.50785   0.50847
 Alpha virt. eigenvalues --    0.56935   0.61820   0.62566   0.88692   0.91669
 Alpha virt. eigenvalues --    1.01821   1.08606   1.08695   1.15415   1.32660
 Alpha virt. eigenvalues --    1.34191   1.34727   1.41005   1.59603   2.06746
 Alpha virt. eigenvalues --    2.08887   2.17476   2.36774   2.37990   2.48380
 Alpha virt. eigenvalues --    2.62742   2.66948   2.67117   2.72609   2.82136
 Alpha virt. eigenvalues --    2.88537   2.89749   2.98848   3.04691   3.05907
 Alpha virt. eigenvalues --    3.21334   3.30089   3.42665   3.44852   3.48792
 Alpha virt. eigenvalues --    3.50817   3.66295   3.73549   3.76445   3.82756
 Alpha virt. eigenvalues --    3.83845   3.95867   4.08320   4.19177   4.51312
 Alpha virt. eigenvalues --    4.61413   4.65391   4.67535   4.88506   4.96220
 Alpha virt. eigenvalues --    4.97036   4.97904   5.59126   5.70275   5.94620
 Alpha virt. eigenvalues --    6.35450  11.35508
  Beta  occ. eigenvalues --  -10.54129  -0.74557  -0.53005  -0.38608
  Beta virt. eigenvalues --   -0.03476   0.07721   0.11723   0.13005   0.24702
  Beta virt. eigenvalues --    0.32801   0.34584   0.44171   0.48771   0.51211
  Beta virt. eigenvalues --    0.51599   0.59452   0.61868   0.65055   0.89044
  Beta virt. eigenvalues --    0.90893   1.01232   1.07306   1.07811   1.14864
  Beta virt. eigenvalues --    1.33201   1.33858   1.35287   1.42754   1.63271
  Beta virt. eigenvalues --    2.08281   2.14403   2.17812   2.37859   2.40863
  Beta virt. eigenvalues --    2.52405   2.64097   2.68292   2.73231   2.79367
  Beta virt. eigenvalues --    2.85937   2.93856   2.94402   3.02105   3.10990
  Beta virt. eigenvalues --    3.13551   3.22560   3.30985   3.43306   3.46839
  Beta virt. eigenvalues --    3.49675   3.51706   3.68392   3.75326   3.76829
  Beta virt. eigenvalues --    3.84697   3.85100   3.97724   4.09239   4.20829
  Beta virt. eigenvalues --    4.54053   4.66415   4.67330   4.72302   4.90660
  Beta virt. eigenvalues --    5.00725   5.01891   5.04308   5.65169   5.74473
  Beta virt. eigenvalues --    6.05467   6.39622  11.36272
          Condensed to atoms (all electrons):
               1          2          3          4
     1  C    5.424953   0.327761   0.397857   0.397726
     2  H    0.327761   0.676395  -0.059783  -0.059521
     3  H    0.397857  -0.059783   0.459610  -0.014754
     4  H    0.397726  -0.059521  -0.014754   0.460468
          Atomic-Atomic Spin Densities.
               1          2          3          4
     1  C    1.105255   0.005675  -0.002238  -0.002176
     2  H    0.005675  -0.058281   0.011109   0.011100
     3  H   -0.002238   0.011109  -0.045305  -0.001530
     4  H   -0.002176   0.011100  -0.001530  -0.045549
 Mulliken charges and spin densities:
               1          2
     1  C   -0.548297   1.106515
     2  H    0.115148  -0.030397
     3  H    0.217069  -0.037964
     4  H    0.216081  -0.038154
 Sum of Mulliken charges =  -0.00000   1.00000
 Mulliken charges and spin densities with hydrogens summed into heavy atoms:
               1          2
     1  C   -0.000000   1.000000
 Electronic spatial extent (au):  <R**2>=             30.1157
 Charge=             -0.0000 electrons
 Dipole moment (field-independent basis, Debye):
    X=              0.0005    Y=              0.6237    Z=              0.0000  Tot=              0.6237
 Quadrupole moment (field-independent basis, Debye-Ang):
   XX=             -6.0956   YY=             -8.7909   ZZ=             -9.1517
   XY=              0.0081   XZ=              0.0000   YZ=             -0.0000
 Traceless Quadrupole moment (field-independent basis, Debye-Ang):
   XX=              1.9171   YY=             -0.7781   ZZ=             -1.1389
   XY=              0.0081   XZ=              0.0000   YZ=             -0.0000
 Octapole moment (field-independent basis, Debye-Ang**2):
  XXX=              0.0053  YYY=              1.2299  ZZZ=              0.0000  XYY=             -0.0043
  XXY=              0.3384  XXZ=              0.0000  XZZ=             -0.0032  YZZ=              0.2832
  YYZ=             -0.0000  XYZ=             -0.0000
 Hexadecapole moment (field-independent basis, Debye-Ang**3):
 XXXX=            -13.5515 YYYY=            -16.0502 ZZZZ=            -11.1002 XXXY=              0.0150
 XXXZ=              0.0000 YYYX=             -0.0022 YYYZ=             -0.0000 ZZZX=              0.0000
 ZZZY=             -0.0000 XXYY=             -6.0072 XXZZ=             -4.9874 YYZZ=             -4.7173
 XXYZ=             -0.0000 YYXZ=              0.0000 ZZXY=              0.0004
 N-N= 9.666450094765D+00 E-N=-1.110491535907D+02  KE= 3.951644954135D+01
 Symmetry A'   KE= 3.840278743941D+01
 Symmetry A"   KE= 1.113662101944D+00
 Symmetry A'   SP=-3.623756873186D-15
 Symmetry A"   SP= 1.000000000000D+00
                          Isotropic Fermi Contact Couplings
        Atom                 a.u.       MegaHertz       Gauss      10(-4) cm-1
     1  C(13)              0.21294     239.38925      85.42004      79.85166
     2  H(1)              -0.01725     -77.12271     -27.51930     -25.72537
     3  H(1)              -0.01951     -87.20583     -31.11721     -29.08873
     4  H(1)              -0.01958     -87.51266     -31.22670     -29.19108
 --------------------------------------------------------
       Center         ----  Spin Dipole Couplings  ----
                      3XX-RR        3YY-RR        3ZZ-RR
 --------------------------------------------------------
     1   Atom       -0.581986     -0.525087      1.107073
     2   Atom       -0.072518      0.078250     -0.005732
     3   Atom        0.080416     -0.077360     -0.003056
     4   Atom        0.080230     -0.076919     -0.003311
 --------------------------------------------------------
                        XY            XZ            YZ
 --------------------------------------------------------
     1   Atom       -0.000322      0.000000     -0.000000
     2   Atom       -0.000427      0.000000      0.000000
     3   Atom        0.001659      0.000000      0.000000
     4   Atom       -0.000735     -0.000000     -0.000000
 --------------------------------------------------------


 ---------------------------------------------------------------------------------
              Anisotropic Spin Dipole Couplings in Principal Axis System
 ---------------------------------------------------------------------------------

       Atom             a.u.   MegaHertz   Gauss  10(-4) cm-1        Axes

              Baa    -0.5820   -78.097   -27.867   -26.050  1.0000  0.0057 -0.0000
     1 C(13)  Bbb    -0.5251   -70.461   -25.142   -23.503 -0.0057  1.0000  0.0000
              Bcc     1.1071   148.559    53.009    49.554  0.0000 -0.0000  1.0000
 
              Baa    -0.0725   -38.693   -13.807   -12.907  1.0000  0.0028 -0.0000
     2 H(1)   Bbb    -0.0057    -3.058    -1.091    -1.020  0.0000 -0.0000  1.0000
              Bcc     0.0783    41.751    14.898    13.927 -0.0028  1.0000  0.0000
 
              Baa    -0.0774   -41.285   -14.731   -13.771 -0.0105  0.9999 -0.0000
     3 H(1)   Bbb    -0.0031    -1.630    -0.582    -0.544 -0.0000  0.0000  1.0000
              Bcc     0.0804    42.915    15.313    14.315  0.9999  0.0105  0.0000
 
              Baa    -0.0769   -41.042   -14.645   -13.690  0.0047  1.0000  0.0000
     4 H(1)   Bbb    -0.0033    -1.767    -0.630    -0.589  0.0000 -0.0000  1.0000
              Bcc     0.0802    42.809    15.275    14.280  1.0000 -0.0047 -0.0000
 

 ---------------------------------------------------------------------------------



 I KNOW YOU BELIEVE YOU UNDERSTAND WHAT YOU THINK I SAID,
 BUT I AM NOT SURE YOU REALIZE THAT WHAT YOU HEARD IS NOT WHAT I MEANT.
 Error termination request processed by link 9999.
 Error termination via Lnk1e in /shared/centos7/gaussian/g16/l9999.exe at Fri Mar 29 11:17:20 2019.
 Job cpu time:       0 days  1 hours 15 minutes  9.8 seconds.
 Elapsed time:       0 days  0 hours  4 minutes 45.4 seconds.
 File lengths (MBytes):  RWF=    272 Int=      0 D2E=      0 Chk=     32 Scr=     32
