 Entering Gaussian System, Link 0=g16
 Input=nateC#CC.com
 Output=nateC#CC.log
 Initial command:
 /shared/centos7/gaussian/g16/l1.exe "/scratch/dinius.ab/QMscratch/Gau-41865.inp" -scrdir="/scratch/dinius.ab/QMscratch/"
 Default is to use a total of  20 processors:
                               20 via shared-memory
                                1 via Linda
 Entering Link 1 = /shared/centos7/gaussian/g16/l1.exe PID=     41866.
  
 Copyright (c) 1988,1990,1992,1993,1995,1998,2003,2009,2016,
            Gaussian, Inc.  All Rights Reserved.
  
 This is part of the Gaussian(R) 16 program.  It is based on
 the Gaussian(R) 09 system (copyright 2009, Gaussian, Inc.),
 the Gaussian(R) 03 system (copyright 2003, Gaussian, Inc.),
 the Gaussian(R) 98 system (copyright 1998, Gaussian, Inc.),
 the Gaussian(R) 94 system (copyright 1995, Gaussian, Inc.),
 the Gaussian 92(TM) system (copyright 1992, Gaussian, Inc.),
 the Gaussian 90(TM) system (copyright 1990, Gaussian, Inc.),
 the Gaussian 88(TM) system (copyright 1988, Gaussian, Inc.),
 the Gaussian 86(TM) system (copyright 1986, Carnegie Mellon
 University), and the Gaussian 82(TM) system (copyright 1983,
 Carnegie Mellon University). Gaussian is a federally registered
 trademark of Gaussian, Inc.
  
 This software contains proprietary and confidential information,
 including trade secrets, belonging to Gaussian, Inc.
  
 This software is provided under written license and may be
 used, copied, transmitted, or stored only in accord with that
 written license.
  
 The following legend is applicable only to US Government
 contracts under FAR:
  
                    RESTRICTED RIGHTS LEGEND
  
 Use, reproduction and disclosure by the US Government is
 subject to restrictions as set forth in subparagraphs (a)
 and (c) of the Commercial Computer Software - Restricted
 Rights clause in FAR 52.227-19.
  
 Gaussian, Inc.
 340 Quinnipiac St., Bldg. 40, Wallingford CT 06492
  
  
 ---------------------------------------------------------------
 Warning -- This program may not be used in any manner that
 competes with the business of Gaussian, Inc. or will provide
 assistance to any competitor of Gaussian, Inc.  The licensee
 of this program is prohibited from giving any competitor of
 Gaussian, Inc. access to this program.  By using this program,
 the user acknowledges that Gaussian, Inc. is engaged in the
 business of creating and licensing software in the field of
 computational chemistry and represents and warrants to the
 licensee that it is not a competitor of Gaussian, Inc. and that
 it will not use this program in any manner prohibited above.
 ---------------------------------------------------------------
  

 Cite this work as:
 Gaussian 16, Revision A.03,
 M. J. Frisch, G. W. Trucks, H. B. Schlegel, G. E. Scuseria, 
 M. A. Robb, J. R. Cheeseman, G. Scalmani, V. Barone, 
 G. A. Petersson, H. Nakatsuji, X. Li, M. Caricato, A. V. Marenich, 
 J. Bloino, B. G. Janesko, R. Gomperts, B. Mennucci, H. P. Hratchian, 
 J. V. Ortiz, A. F. Izmaylov, J. L. Sonnenberg, D. Williams-Young, 
 F. Ding, F. Lipparini, F. Egidi, J. Goings, B. Peng, A. Petrone, 
 T. Henderson, D. Ranasinghe, V. G. Zakrzewski, J. Gao, N. Rega, 
 G. Zheng, W. Liang, M. Hada, M. Ehara, K. Toyota, R. Fukuda, 
 J. Hasegawa, M. Ishida, T. Nakajima, Y. Honda, O. Kitao, H. Nakai, 
 T. Vreven, K. Throssell, J. A. Montgomery, Jr., J. E. Peralta, 
 F. Ogliaro, M. J. Bearpark, J. J. Heyd, E. N. Brothers, K. N. Kudin, 
 V. N. Staroverov, T. A. Keith, R. Kobayashi, J. Normand, 
 K. Raghavachari, A. P. Rendell, J. C. Burant, S. S. Iyengar, 
 J. Tomasi, M. Cossi, J. M. Millam, M. Klene, C. Adamo, R. Cammi, 
 J. W. Ochterski, R. L. Martin, K. Morokuma, O. Farkas, 
 J. B. Foresman, and D. J. Fox, Gaussian, Inc., Wallingford CT, 2016.
 
 ******************************************
 Gaussian 16:  EM64L-G16RevA.03 25-Dec-2016
                 2-Apr-2019 
 ******************************************
 ----------------------------------------------------------------------
 #m062x/cc-pVTZ Opt=(calcfc,verytight,gdiis,maxcycles=900) freq IOP(2/1
 6=3) scf=(maxcycle=900)
 ----------------------------------------------------------------------

 Warning!  Use of Opt=GDIIS is deprecated since it is seldom a good choice.

 1/6=900,7=1,10=4,18=20,19=11,26=3,38=1/1,3;
 2/9=110,12=2,16=3,17=6,18=5,40=1/2;
 3/5=16,6=1,11=2,25=1,30=1,71=2,74=-55,140=1/1,2,3;
 4//1;
 5/5=2,7=900,38=5/2;
 8/6=4,10=90,11=11/1;
 11/6=1,8=1,9=11,15=111,16=1/1,2,10;
 10/6=1,13=1/2;
 6/7=2,8=2,9=2,10=2,28=1/1;
 7/10=1,18=20,25=1/1,2,3,16;
 1/6=900,7=1,10=4,18=20,19=11,26=3/3(2);
 2/9=110,16=3/2;
 99//99;
 2/9=110,16=3/2;
 3/5=16,6=1,11=2,25=1,30=1,71=1,74=-55/1,2,3;
 4/5=5,16=3,69=1/1;
 5/5=2,7=900,38=5/2;
 7//1,2,3,16;
 1/6=900,7=1,18=20,19=11,26=3/3(-5);
 2/9=110,16=3/2;
 6/7=2,8=2,9=2,10=2,19=2,28=1/1;
 99/9=1/99;
 -----
 Title
 -----
 Symbolic Z-matrix:
 Charge =  0 Multiplicity = 1
 C                    -3.17414  -1.66005   0.59054 
 C                    -2.14552  -0.33505   0.00018 
 C                    -0.9406    0.01535   1.56271 
 H                    -0.32665   0.8733    2.27514 
 H                    -0.26954   0.46715   0.55195 
 H                    -0.08806  -0.80721   1.76873 
 H                    -4.22906  -1.81137   0.59091 
 
 Add virtual bond connecting atoms C3         and C2         Dist= 3.79D+00.
 Add virtual bond connecting atoms H5         and C2         Dist= 3.99D+00.

 GradGradGradGradGradGradGradGradGradGradGradGradGradGradGradGradGradGrad
 Berny optimization.
 Initialization pass.
                           ----------------------------
                           !    Initial Parameters    !
                           ! (Angstroms and Degrees)  !
 --------------------------                            --------------------------
 ! Name  Definition              Value          Derivative Info.                !
 --------------------------------------------------------------------------------
 ! R1    R(1,2)                  1.7783         calculate D2E/DX2 analytically  !
 ! R2    R(1,7)                  1.0657         calculate D2E/DX2 analytically  !
 ! R3    R(2,3)                  2.004          calculate D2E/DX2 analytically  !
 ! R4    R(2,5)                  2.1136         calculate D2E/DX2 analytically  !
 ! R5    R(3,4)                  1.273          calculate D2E/DX2 analytically  !
 ! R6    R(3,5)                  1.2946         calculate D2E/DX2 analytically  !
 ! R7    R(3,6)                  1.2024         calculate D2E/DX2 analytically  !
 ! A1    A(2,1,7)              132.7261         calculate D2E/DX2 analytically  !
 ! A2    A(1,2,3)              102.6632         calculate D2E/DX2 analytically  !
 ! A3    A(1,2,5)              135.198          calculate D2E/DX2 analytically  !
 ! A4    A(2,3,4)              147.5819         calculate D2E/DX2 analytically  !
 ! A5    A(2,3,6)              116.1211         calculate D2E/DX2 analytically  !
 ! A6    A(4,3,5)               87.2343         calculate D2E/DX2 analytically  !
 ! A7    A(4,3,6)               91.3298         calculate D2E/DX2 analytically  !
 ! A8    A(5,3,6)               90.2858         calculate D2E/DX2 analytically  !
 ! D1    D(7,1,2,3)            131.0798         calculate D2E/DX2 analytically  !
 ! D2    D(7,1,2,5)            150.596          calculate D2E/DX2 analytically  !
 ! D3    D(1,2,3,4)           -141.6663         calculate D2E/DX2 analytically  !
 ! D4    D(1,2,3,6)             73.2144         calculate D2E/DX2 analytically  !
 --------------------------------------------------------------------------------
 Trust Radius=3.00D-01 FncErr=1.00D-07 GrdErr=1.00D-06 EigMax=2.50D+02 EigMin=1.00D-04
 Number of steps in this run=    100 maximum allowed number of steps=    100.
 GradGradGradGradGradGradGradGradGradGradGradGradGradGradGradGradGradGrad

                          Input orientation:                          
 ---------------------------------------------------------------------
 Center     Atomic      Atomic             Coordinates (Angstroms)
 Number     Number       Type             X           Y           Z
 ---------------------------------------------------------------------
      1          6           0       -3.174140   -1.660050    0.590540
      2          6           0       -2.145520   -0.335050    0.000180
      3          6           0       -0.940600    0.015350    1.562710
      4          1           0       -0.326650    0.873300    2.275140
      5          1           0       -0.269540    0.467150    0.551950
      6          1           0       -0.088060   -0.807210    1.768730
      7          1           0       -4.229060   -1.811370    0.590910
 ---------------------------------------------------------------------
                    Distance matrix (angstroms):
                    1          2          3          4          5
     1  C    0.000000
     2  C    1.778260   0.000000
     3  C    2.956481   2.004024   0.000000
     4  H    4.167006   3.153386   1.273016   0.000000
     5  H    3.600440   2.113593   1.294635   1.771328   0.000000
     6  H    3.411650   2.753878   1.202445   1.771296   1.771294
     7  H    1.065718   2.620996   3.885263   5.027215   4.568476
                    6          7
     6  H    0.000000
     7  H    4.420801   0.000000
 Stoichiometry    C3H4
 Framework group  C1[X(C3H4)]
 Deg. of freedom    15
 Full point group                 C1      NOp   1
 Largest Abelian subgroup         C1      NOp   1
 Largest concise Abelian subgroup C1      NOp   1
                         Standard orientation:                         
 ---------------------------------------------------------------------
 Center     Atomic      Atomic             Coordinates (Angstroms)
 Number     Number       Type             X           Y           Z
 ---------------------------------------------------------------------
      1          6           0        1.604414   -0.382883    0.086098
      2          6           0        0.311106    0.834032   -0.007083
      3          6           0       -1.343974   -0.291027   -0.112261
      4          1           0       -2.502848   -0.453541   -0.613430
      5          1           0       -1.771792    0.839335    0.351781
      6          1           0       -1.675852   -0.840837    0.904321
      7          1           0        2.521213   -0.505691   -0.443197
 ---------------------------------------------------------------------
 Rotational constants (GHZ):          34.3534986           6.8371040           5.9329981
 Standard basis: CC-pVTZ (5D, 7F)
 There are   165 symmetry adapted cartesian basis functions of A   symmetry.
 There are   146 symmetry adapted basis functions of A   symmetry.
   146 basis functions,   224 primitive gaussians,   165 cartesian basis functions
    11 alpha electrons       11 beta electrons
       nuclear repulsion energy        46.7311141121 Hartrees.
 NAtoms=    7 NActive=    7 NUniq=    7 SFac= 1.00D+00 NAtFMM=   60 NAOKFM=F Big=F
 Integral buffers will be    131072 words long.
 Raffenetti 2 integral format.
 Two-electron integral symmetry is turned on.
 One-electron integrals computed using PRISM.
 NBasis=   146 RedAO= T EigKep=  1.87D-03  NBF=   146
 NBsUse=   146 1.00D-06 EigRej= -1.00D+00 NBFU=   146
 ExpMin= 1.03D-01 ExpMax= 8.24D+03 ExpMxC= 2.81D+02 IAcc=3 IRadAn=         5 AccDes= 0.00D+00
 Harris functional with IExCor= 1009 and IRadAn=       5 diagonalized for initial guess.
 HarFok:  IExCor= 1009 AccDes= 0.00D+00 IRadAn=         5 IDoV= 1 UseB2=F ITyADJ=14
 ICtDFT=  3500011 ScaDFX=  1.000000  1.000000  1.000000  1.000000
 FoFCou: FMM=F IPFlag=           0 FMFlag=      100000 FMFlg1=           0
         NFxFlg=           0 DoJE=T BraDBF=F KetDBF=T FulRan=T
         wScrn=  0.000000 ICntrl=       500 IOpCl=  0 I1Cent=   200000004 NGrid=           0
         NMat0=    1 NMatS0=      1 NMatT0=    0 NMatD0=    1 NMtDS0=    0 NMtDT0=    0
 Petite list used in FoFCou.
 Keep R1 ints in memory in canonical form, NReq=77430779.
 Requested convergence on RMS density matrix=1.00D-08 within 900 cycles.
 Requested convergence on MAX density matrix=1.00D-06.
 Requested convergence on             energy=1.00D-06.
 No special actions if energy rises.
 Integral accuracy reduced to 1.0D-05 until final iterations.
 Initial convergence to 1.0D-05 achieved.  Increase integral accuracy.
 SCF Done:  E(RM062X) =  -116.236724809     A.U. after   20 cycles
            NFock= 20  Conv=0.98D-08     -V/T= 2.0166
 DoSCS=F DFT=T ScalE2(SS,OS)=  1.000000  1.000000
 Range of M.O.s used for correlation:     1   146
 NBasis=   146 NAE=    11 NBE=    11 NFC=     0 NFV=     0
 NROrb=    146 NOA=    11 NOB=    11 NVA=   135 NVB=   135
 Symmetrizing basis deriv contribution to polar:
 IMax=3 JMax=2 DiffMx= 0.00D+00
 G2DrvN: will do     8 centers at a time, making    1 passes.
 Calling FoFCou, ICntrl=  3107 FMM=F I1Cent=   0 AccDes= 0.00D+00.
 End of G2Drv F.D. properties file   721 does not exist.
 End of G2Drv F.D. properties file   722 does not exist.
 End of G2Drv F.D. properties file   788 does not exist.
          IDoAtm=1111111
          Differentiating once with respect to nuclear coordinates.
 Keep R1 ints in memory in canonical form, NReq=77367331.
          There are    24 degrees of freedom in the 1st order CPHF.  IDoFFX=6 NUNeed=     0.
     18 vectors produced by pass  0 Test12= 6.19D-15 4.17D-09 XBig12= 6.13D-02 1.14D-01.
 AX will form    18 AO Fock derivatives at one time.
     18 vectors produced by pass  1 Test12= 6.19D-15 4.17D-09 XBig12= 4.10D-02 7.30D-02.
     18 vectors produced by pass  2 Test12= 6.19D-15 4.17D-09 XBig12= 2.35D-03 1.10D-02.
     18 vectors produced by pass  3 Test12= 6.19D-15 4.17D-09 XBig12= 3.08D-05 1.42D-03.
     18 vectors produced by pass  4 Test12= 6.19D-15 4.17D-09 XBig12= 2.90D-07 1.27D-04.
     18 vectors produced by pass  5 Test12= 6.19D-15 4.17D-09 XBig12= 2.24D-09 9.85D-06.
     14 vectors produced by pass  6 Test12= 6.19D-15 4.17D-09 XBig12= 1.26D-11 5.47D-07.
      4 vectors produced by pass  7 Test12= 6.19D-15 4.17D-09 XBig12= 4.79D-14 3.14D-08.
 InvSVY:  IOpt=1 It=  1 EMax= 1.22D-15
 Solved reduced A of dimension   126 with    18 vectors.
 End of Minotr F.D. properties file   721 does not exist.
 End of Minotr F.D. properties file   722 does not exist.
 End of Minotr F.D. properties file   788 does not exist.

 **********************************************************************

            Population analysis using the SCF density.

 **********************************************************************

 Orbital symmetries:
       Occupied  (A) (A) (A) (A) (A) (A) (A) (A) (A) (A) (A)
       Virtual   (A) (A) (A) (A) (A) (A) (A) (A) (A) (A) (A) (A)
                 (A) (A) (A) (A) (A) (A) (A) (A) (A) (A) (A) (A)
                 (A) (A) (A) (A) (A) (A) (A) (A) (A) (A) (A) (A)
                 (A) (A) (A) (A) (A) (A) (A) (A) (A) (A) (A) (A)
                 (A) (A) (A) (A) (A) (A) (A) (A) (A) (A) (A) (A)
                 (A) (A) (A) (A) (A) (A) (A) (A) (A) (A) (A) (A)
                 (A) (A) (A) (A) (A) (A) (A) (A) (A) (A) (A) (A)
                 (A) (A) (A) (A) (A) (A) (A) (A) (A) (A) (A) (A)
                 (A) (A) (A) (A) (A) (A) (A) (A) (A) (A) (A) (A)
                 (A) (A) (A) (A) (A) (A) (A) (A) (A) (A) (A) (A)
                 (A) (A) (A) (A) (A) (A) (A) (A) (A) (A) (A) (A)
                 (A) (A) (A)
 The electronic state is 1-A.
 Alpha  occ. eigenvalues --  -10.69618 -10.65823 -10.59990  -0.78961  -0.73736
 Alpha  occ. eigenvalues --   -0.63133  -0.44636  -0.41204  -0.36204  -0.35211
 Alpha  occ. eigenvalues --   -0.29872
 Alpha virt. eigenvalues --   -0.10782  -0.06288   0.00176   0.07479   0.08347
 Alpha virt. eigenvalues --    0.13469   0.13953   0.14951   0.28345   0.28830
 Alpha virt. eigenvalues --    0.32538   0.33172   0.35685   0.36083   0.38575
 Alpha virt. eigenvalues --    0.40421   0.43233   0.44758   0.46246   0.48130
 Alpha virt. eigenvalues --    0.48690   0.50736   0.53911   0.55049   0.62959
 Alpha virt. eigenvalues --    0.66478   0.67429   0.68401   0.76890   0.81616
 Alpha virt. eigenvalues --    0.84474   0.85700   0.92278   0.93651   0.96448
 Alpha virt. eigenvalues --    1.00156   1.06100   1.08712   1.10624   1.14752
 Alpha virt. eigenvalues --    1.16263   1.17922   1.20800   1.21926   1.25958
 Alpha virt. eigenvalues --    1.28021   1.30356   1.35380   1.36587   1.42501
 Alpha virt. eigenvalues --    1.52586   1.97817   1.99856   2.07040   2.07664
 Alpha virt. eigenvalues --    2.14713   2.17182   2.23857   2.28256   2.35195
 Alpha virt. eigenvalues --    2.38276   2.42084   2.44830   2.48807   2.51709
 Alpha virt. eigenvalues --    2.53386   2.55870   2.58856   2.61101   2.63443
 Alpha virt. eigenvalues --    2.64947   2.66904   2.68794   2.73847   2.75216
 Alpha virt. eigenvalues --    2.80633   2.83882   2.90877   2.92426   2.94944
 Alpha virt. eigenvalues --    2.97393   3.00370   3.01024   3.03449   3.07092
 Alpha virt. eigenvalues --    3.07747   3.09388   3.13008   3.17584   3.18315
 Alpha virt. eigenvalues --    3.20411   3.22754   3.27958   3.29749   3.30548
 Alpha virt. eigenvalues --    3.31726   3.35134   3.35900   3.39241   3.42932
 Alpha virt. eigenvalues --    3.46455   3.47451   3.52300   3.62845   3.70576
 Alpha virt. eigenvalues --    3.73683   3.75025   3.76271   3.76992   3.82724
 Alpha virt. eigenvalues --    3.85122   3.89479   3.91263   3.95396   4.00962
 Alpha virt. eigenvalues --    4.08068   4.12997   4.25152   4.30462   4.33325
 Alpha virt. eigenvalues --    4.41103   4.70036   4.70858   4.74172   4.79199
 Alpha virt. eigenvalues --    4.81430   4.81894   4.87664   4.89249   4.96036
 Alpha virt. eigenvalues --    5.54830   5.64173   5.66330   8.95860   9.09232
          Condensed to atoms (all electrons):
               1          2          3          4          5          6
     1  C    5.483387   0.345332  -0.006461  -0.000630   0.005415  -0.005504
     2  C    0.345332   5.547334   0.190672  -0.003851  -0.057525  -0.006968
     3  C   -0.006461   0.190672   5.202540   0.350448   0.325543   0.366605
     4  H   -0.000630  -0.003851   0.350448   0.599119  -0.032097  -0.050935
     5  H    0.005415  -0.057525   0.325543  -0.032097   0.698575  -0.039315
     6  H   -0.005504  -0.006968   0.366605  -0.050935  -0.039315   0.599067
     7  H    0.330262  -0.009669   0.001265  -0.000009  -0.000273   0.000214
               7
     1  C    0.330262
     2  C   -0.009669
     3  C    0.001265
     4  H   -0.000009
     5  H   -0.000273
     6  H    0.000214
     7  H    0.464941
 Mulliken charges:
               1
     1  C   -0.151802
     2  C   -0.005324
     3  C   -0.430612
     4  H    0.137956
     5  H    0.099677
     6  H    0.136836
     7  H    0.213269
 Sum of Mulliken charges =  -0.00000
 Mulliken charges with hydrogens summed into heavy atoms:
               1
     1  C    0.061467
     2  C   -0.005324
     3  C   -0.056143
 APT charges:
               1
     1  C   -0.343596
     2  C   -0.189885
     3  C   -1.326938
     4  H    0.544353
     5  H    0.286360
     6  H    0.442265
     7  H    0.587441
 Sum of APT charges =  -0.00000
 APT charges with hydrogens summed into heavy atoms:
               1
     1  C    0.243845
     2  C   -0.189885
     3  C   -0.053960
 Electronic spatial extent (au):  <R**2>=            238.2918
 Charge=             -0.0000 electrons
 Dipole moment (field-independent basis, Debye):
    X=              0.5986    Y=             -0.4732    Z=             -0.6311  Tot=              0.9902
 Quadrupole moment (field-independent basis, Debye-Ang):
   XX=            -13.7723   YY=            -22.4030   ZZ=            -22.5573
   XY=             -0.4566   XZ=             -2.3682   YZ=              0.2680
 Traceless Quadrupole moment (field-independent basis, Debye-Ang):
   XX=              5.8053   YY=             -2.8255   ZZ=             -2.9798
   XY=             -0.4566   XZ=             -2.3682   YZ=              0.2680
 Octapole moment (field-independent basis, Debye-Ang**2):
  XXX=              4.0531  YYY=             -3.0063  ZZZ=             -0.4522  XYY=             -0.0065
  XXY=             -4.0103  XXZ=             -3.9615  XZZ=             -1.5822  YZZ=             -0.1323
  YYZ=             -1.2932  XYZ=              2.5392
 Hexadecapole moment (field-independent basis, Debye-Ang**3):
 XXXX=           -205.4357 YYYY=            -74.1342 ZZZZ=            -37.4670 XXXY=              1.7293
 XXXZ=             -8.6222 YYYX=             -3.2862 YYYZ=             -0.5728 ZZZX=             -4.9830
 ZZZY=             -0.4615 XXYY=            -55.1251 XXZZ=            -51.9261 YYZZ=            -17.7000
 XXYZ=              3.7411 YYXZ=             -3.8054 ZZXY=              0.9499
 N-N= 4.673111411205D+01 E-N=-3.615240445346D+02  KE= 1.143375721093D+02
  Exact polarizability:   0.000   0.000   0.000   0.000   0.000   0.000
 Approx polarizability: 108.886 -16.778  75.706   4.896  -0.614  39.328
 Calling FoFJK, ICntrl=    100147 FMM=F ISym2X=0 I1Cent= 0 IOpClX= 0 NMat=1 NMatS=1 NMatT=0.
 ***** Axes restored to original set *****
 -------------------------------------------------------------------
 Center     Atomic                   Forces (Hartrees/Bohr)
 Number     Number              X              Y              Z
 -------------------------------------------------------------------
      1        6           0.116620087    0.106804635   -0.055734289
      2        6          -0.067804030   -0.102370351    0.108988725
      3        6           0.127354929    0.029418482   -0.073447669
      4        1          -0.068605339   -0.030292643   -0.027601778
      5        1          -0.027761736   -0.021161988    0.052856576
      6        1          -0.057951851    0.012182024   -0.011415992
      7        1          -0.021852060    0.005419840    0.006354428
 -------------------------------------------------------------------
 Cartesian Forces:  Max     0.127354929 RMS     0.066236105
 FormGI is forming the generalized inverse of G from B-inverse, IUseBI=4.

 GradGradGradGradGradGradGradGradGradGradGradGradGradGradGradGradGradGrad
 Berny optimization.
 Internal  Forces:  Max     0.154830868 RMS     0.048837677
 Search for a local minimum.
 Step number   1 out of a maximum of  100
 All quantities printed in internal units (Hartrees-Bohrs-Radians)
 Swapping is turned off.
 Second derivative matrix not updated -- analytic derivatives used.
 The second derivative matrix:
                          R1        R2        R3        R4        R5
           R1          -0.10042
           R2          -0.01013   0.40120
           R3           0.00790   0.00015  -0.00705
           R4           0.00388   0.00014  -0.00430   0.02948
           R5          -0.00144  -0.00005  -0.00138  -0.00334   0.10937
           R6          -0.00671  -0.00004   0.00580  -0.00672   0.00681
           R7          -0.00261  -0.00010  -0.00047  -0.00131   0.00588
           A1           0.04513   0.01025  -0.00194   0.00012  -0.00038
           A2           0.00104   0.00074   0.01705   0.00058  -0.00006
           A3          -0.00110   0.00041   0.01609  -0.00592  -0.00149
           A4          -0.00579  -0.00045  -0.00535   0.00257  -0.00403
           A5          -0.00028   0.00032   0.00504   0.00331  -0.00780
           A6          -0.00089  -0.00018   0.00024  -0.01005   0.00713
           A7           0.00677   0.00017  -0.00027  -0.00489   0.01324
           A8           0.00064   0.00027  -0.00374  -0.00956  -0.00742
           D1           0.00578  -0.00053  -0.00497  -0.00263  -0.00463
           D2           0.00354   0.00024   0.00715  -0.00050   0.00441
           D3           0.00535  -0.00066  -0.00052  -0.00236   0.00562
           D4          -0.00019  -0.00100  -0.00027  -0.00405  -0.00295
                          R6        R7        A1        A2        A3
           R6           0.08432
           R7           0.00459   0.17474
           A1           0.00069   0.00049   0.00358
           A2          -0.01040  -0.00264   0.00727   0.00850
           A3           0.01326   0.00117   0.00189  -0.00265   0.00394
           A4           0.00813  -0.00769   0.00099  -0.00195  -0.00882
           A5          -0.00065  -0.00312  -0.00113   0.00214   0.00624
           A6           0.02099  -0.00496   0.00395   0.00879  -0.00367
           A7          -0.00180   0.01190   0.00152  -0.00171   0.00149
           A8           0.02393   0.01096  -0.00406  -0.01366   0.02204
           D1          -0.00229   0.00283  -0.02200  -0.01955  -0.00470
           D2           0.00445  -0.00231  -0.00801  -0.00390  -0.01127
           D3           0.01004   0.00309  -0.00729  -0.00887  -0.00697
           D4          -0.00651  -0.00538  -0.01198  -0.00398  -0.00646
                          A4        A5        A6        A7        A8
           A4           0.00126
           A5           0.02028   0.02477
           A6           0.02032  -0.00042   0.04980
           A7          -0.01163  -0.04613  -0.01123   0.05280
           A8          -0.00779   0.01124  -0.03880  -0.00183   0.09035
           D1          -0.00976   0.00624  -0.02484   0.00163   0.03433
           D2           0.01065  -0.00440   0.02153  -0.00557  -0.02588
           D3           0.01872  -0.00904   0.01595  -0.00534  -0.00206
           D4          -0.01307   0.00971  -0.00512  -0.00141  -0.00997
                          D1        D2        D3        D4
           D1           0.02948
           D2          -0.00693   0.01030
           D3           0.00097   0.00278   0.00522
           D4           0.00393   0.00504  -0.00246   0.00981
 ITU=  0
     Eigenvalues ---   -0.12121  -0.03811  -0.03287  -0.00376   0.00183
     Eigenvalues ---    0.01116   0.03129   0.03503   0.05452   0.07915
     Eigenvalues ---    0.11141   0.11607   0.15150   0.18381   0.40164
 Eigenvalue     1 is  -1.21D-01 should be greater than     0.000000 Eigenvector:
                          R1        A1        D1        R3        D3
   1                    0.91764  -0.36050  -0.08445  -0.07293  -0.07108
                          D2        A4        A7        R6        R4
   1                   -0.05264   0.04880  -0.03926   0.03348  -0.02916
 Eigenvalue     2 is  -3.81D-02 should be greater than     0.000000 Eigenvector:
                          A4        A5        D3        R3        D4
   1                   -0.56855   0.47649   0.36452  -0.33623  -0.26352
                          D2        A7        A2        D1        A1
   1                    0.23267   0.20723   0.11916  -0.10823  -0.06341
 Eigenvalue     3 is  -3.29D-02 should be greater than     0.000000 Eigenvector:
                          R3        A3        A2        A4        D1
   1                    0.53904  -0.51485  -0.42202  -0.24359  -0.22369
                          D2        D4        A5        A6        A1
   1                   -0.21918  -0.18620   0.17954   0.12676  -0.10227
 Eigenvalue     4 is  -3.76D-03 should be greater than     0.000000 Eigenvector:
                          D3        D4        R3        A1        R1
   1                   -0.62005  -0.43129  -0.37942  -0.31120  -0.23628
                          D1        R4        A3        D2        A6
   1                   -0.19712  -0.18594  -0.12671   0.12502  -0.09248
 Quadratic step=3.686D+01 exceeds max=3.000D-01 adjusted using Lamda=-6.270D-01.
 Angle between NR and scaled steps=  60.89 degrees.
 Angle between quadratic step and forces=   4.78 degrees.
 Linear search not attempted -- option 19 set.
 Iteration  1 RMS(Cart)=  0.08673438 RMS(Int)=  0.00380065
 Iteration  2 RMS(Cart)=  0.00339176 RMS(Int)=  0.00040072
 Iteration  3 RMS(Cart)=  0.00000291 RMS(Int)=  0.00040071
 Iteration  4 RMS(Cart)=  0.00000000 RMS(Int)=  0.00040071
 Variable       Old X    -DE/DX   Delta X   Delta X   Delta X     New X
                                 (Linear)    (Quad)   (Total)
    R1        3.36042  -0.15483   0.00000  -0.21410  -0.21410   3.14632
    R2        2.01391   0.02086   0.00000   0.01950   0.01950   2.03341
    R3        3.78706  -0.06817   0.00000  -0.10647  -0.10659   3.68047
    R4        3.99411   0.00141   0.00000  -0.00041  -0.00039   3.99372
    R5        2.40565  -0.06895   0.00000  -0.09425  -0.09425   2.31140
    R6        2.44651  -0.05953   0.00000  -0.08218  -0.08202   2.36448
    R7        2.27229  -0.05138   0.00000  -0.06437  -0.06437   2.20792
    A1        2.31651  -0.00944   0.00000  -0.02662  -0.02662   2.28989
    A2        1.79181  -0.00024   0.00000  -0.00026   0.00028   1.79209
    A3        2.35965  -0.01728   0.00000  -0.02400  -0.02439   2.33526
    A4        2.57579  -0.00760   0.00000  -0.00832  -0.00915   2.56664
    A5        2.02670  -0.01072   0.00000  -0.01635  -0.01708   2.00961
    A6        1.52253  -0.00709   0.00000  -0.00835  -0.00805   1.51448
    A7        1.59401   0.03844   0.00000   0.05606   0.05528   1.64929
    A8        1.57578  -0.00294   0.00000  -0.00153  -0.00162   1.57416
    D1        2.28777  -0.00998   0.00000  -0.02099  -0.02045   2.26732
    D2        2.62840  -0.00406   0.00000  -0.00961  -0.01014   2.61825
    D3       -2.47254   0.03906   0.00000   0.05774   0.05777  -2.41477
    D4        1.27783  -0.03981   0.00000  -0.06343  -0.06369   1.21414
         Item               Value     Threshold  Converged?
 Maximum Force            0.154831     0.000002     NO 
 RMS     Force            0.048838     0.000001     NO 
 Maximum Displacement     0.177986     0.000006     NO 
 RMS     Displacement     0.088915     0.000004     NO 
 Predicted change in Energy=-6.454773D-02
 GradGradGradGradGradGradGradGradGradGradGradGradGradGradGradGradGradGrad

                          Input orientation:                          
 ---------------------------------------------------------------------
 Center     Atomic      Atomic             Coordinates (Angstroms)
 Number     Number       Type             X           Y           Z
 ---------------------------------------------------------------------
      1          6           0       -3.079954   -1.614140    0.599263
      2          6           0       -2.156833   -0.346881    0.038900
      3          6           0       -0.957355    0.001780    1.533193
      4          1           0       -0.403429    0.839916    2.230879
      5          1           0       -0.274025    0.444004    0.582890
      6          1           0       -0.155861   -0.825300    1.729816
      7          1           0       -4.146114   -1.757260    0.625218
 ---------------------------------------------------------------------
                    Distance matrix (angstroms):
                    1          2          3          4          5
     1  C    0.000000
     2  C    1.664963   0.000000
     3  C    2.826455   1.947620   0.000000
     4  H    3.980998   3.047571   1.223141   0.000000
     5  H    3.479865   2.113384   1.251230   1.699812   0.000000
     6  H    3.232760   2.663076   1.168382   1.756502   1.714799
     7  H    1.076037   2.508022   3.753242   4.830235   4.454260
                    6          7
     6  H    0.000000
     7  H    4.243914   0.000000
 Stoichiometry    C3H4
 Framework group  C1[X(C3H4)]
 Deg. of freedom    15
 Full point group                 C1      NOp   1
 Largest Abelian subgroup         C1      NOp   1
 Largest concise Abelian subgroup C1      NOp   1
                         Standard orientation:                         
 ---------------------------------------------------------------------
 Center     Atomic      Atomic             Coordinates (Angstroms)
 Number     Number       Type             X           Y           Z
 ---------------------------------------------------------------------
      1          6           0        1.518269   -0.368930    0.090870
      2          6           0        0.330949    0.794138   -0.007359
      3          6           0       -1.299278   -0.266671   -0.108675
      4          1           0       -2.397173   -0.414525   -0.627172
      5          1           0       -1.748104    0.797791    0.372007
      6          1           0       -1.583972   -0.834229    0.872112
      7          1           0        2.429609   -0.500266   -0.465964
 ---------------------------------------------------------------------
 Rotational constants (GHZ):          37.3823472           7.4236029           6.4660949
 Standard basis: CC-pVTZ (5D, 7F)
 There are   165 symmetry adapted cartesian basis functions of A   symmetry.
 There are   146 symmetry adapted basis functions of A   symmetry.
   146 basis functions,   224 primitive gaussians,   165 cartesian basis functions
    11 alpha electrons       11 beta electrons
       nuclear repulsion energy        48.5795873155 Hartrees.
 NAtoms=    7 NActive=    7 NUniq=    7 SFac= 1.00D+00 NAtFMM=   60 NAOKFM=F Big=F
 Integral buffers will be    131072 words long.
 Raffenetti 2 integral format.
 Two-electron integral symmetry is turned on.
 One-electron integrals computed using PRISM.
 NBasis=   146 RedAO= T EigKep=  1.78D-03  NBF=   146
 NBsUse=   146 1.00D-06 EigRej= -1.00D+00 NBFU=   146
 Initial guess from the checkpoint file:  "/scratch/dinius.ab/QMscratch/Gau-41866.chk"
 B after Tr=     0.000000   -0.000000   -0.000000
         Rot=    0.999983   -0.004906    0.000220    0.003138 Ang=  -0.67 deg.
 ExpMin= 1.03D-01 ExpMax= 8.24D+03 ExpMxC= 2.81D+02 IAcc=2 IRadAn=         4 AccDes= 0.00D+00
 Harris functional with IExCor= 1009 and IRadAn=       4 diagonalized for initial guess.
 HarFok:  IExCor= 1009 AccDes= 0.00D+00 IRadAn=         4 IDoV= 1 UseB2=F ITyADJ=14
 ICtDFT=  3500011 ScaDFX=  1.000000  1.000000  1.000000  1.000000
 FoFCou: FMM=F IPFlag=           0 FMFlag=      100000 FMFlg1=           0
         NFxFlg=           0 DoJE=T BraDBF=F KetDBF=T FulRan=T
         wScrn=  0.000000 ICntrl=       500 IOpCl=  0 I1Cent=   200000004 NGrid=           0
         NMat0=    1 NMatS0=      1 NMatT0=    0 NMatD0=    1 NMtDS0=    0 NMtDT0=    0
 Petite list used in FoFCou.
 Keep R1 ints in memory in canonical form, NReq=77430779.
 Requested convergence on RMS density matrix=1.00D-08 within 900 cycles.
 Requested convergence on MAX density matrix=1.00D-06.
 Requested convergence on             energy=1.00D-06.
 No special actions if energy rises.
 Integral accuracy reduced to 1.0D-05 until final iterations.
 Initial convergence to 1.0D-05 achieved.  Increase integral accuracy.
 SCF Done:  E(RM062X) =  -116.301000591     A.U. after   18 cycles
            NFock= 18  Conv=0.95D-08     -V/T= 2.0161
 Calling FoFJK, ICntrl=      2127 FMM=F ISym2X=0 I1Cent= 0 IOpClX= 0 NMat=1 NMatS=1 NMatT=0.
 ***** Axes restored to original set *****
 -------------------------------------------------------------------
 Center     Atomic                   Forces (Hartrees/Bohr)
 Number     Number              X              Y              Z
 -------------------------------------------------------------------
      1        6           0.109637383    0.128795661   -0.065137639
      2        6          -0.072841216   -0.120155401    0.118962147
      3        6           0.115027866    0.026700812   -0.077043818
      4        1          -0.064561447   -0.024532670   -0.020231769
      5        1          -0.026014052   -0.018774807    0.043461504
      6        1          -0.049762039    0.006276939   -0.006847207
      7        1          -0.011486495    0.001689465    0.006836783
 -------------------------------------------------------------------
 Cartesian Forces:  Max     0.128795661 RMS     0.068127472

 GradGradGradGradGradGradGradGradGradGradGradGradGradGradGradGradGradGrad
 Berny optimization.
 Using GDIIS optimizer.
 FormGI is forming the generalized inverse of G from B-inverse, IUseBI=4.
 Internal  Forces:  Max     0.173356811 RMS     0.049972223
 Search for a local minimum.
 Step number   2 out of a maximum of  100
 All quantities printed in internal units (Hartrees-Bohrs-Radians)
 Swapping is turned off.
 Update second derivatives using D2CorX and points    1    2
 DE= -6.43D-02 DEPred=-6.45D-02 R= 9.96D-01
 TightC=F SS=  1.41D+00  RLast= 3.00D-01 DXNew= 5.0454D-01 9.0026D-01
 Trust test= 9.96D-01 RLast= 3.00D-01 DXMaxT set to 5.05D-01
 The second derivative matrix:
                          R1        R2        R3        R4        R5
           R1          -0.25593
           R2          -0.10113   0.34920
           R3           0.02165   0.00808  -0.00826
           R4           0.00215  -0.00109  -0.00413   0.02949
           R5           0.13356   0.07439  -0.01290  -0.00106   0.00877
           R6           0.08989   0.05327  -0.00245  -0.00510  -0.06533
           R7           0.12684   0.07200  -0.01159   0.00075  -0.09323
           A1           0.14429   0.06580  -0.01049   0.00165  -0.07744
           A2           0.05684   0.03006   0.01242   0.00176  -0.03639
           A3           0.04441   0.02510   0.01225  -0.00508  -0.03393
           A4          -0.07363  -0.03699   0.00036   0.00128   0.04340
           A5           0.02551   0.01571   0.00273   0.00355  -0.03126
           A6           0.03195   0.01753  -0.00253  -0.00943  -0.01592
           A7          -0.01279  -0.01009   0.00135  -0.00531   0.02591
           A8           0.01686   0.00973  -0.00517  -0.00938  -0.02140
           D1           0.01956   0.00661  -0.00611  -0.00232  -0.01325
           D2           0.02395   0.01193   0.00537  -0.00023  -0.01240
           D3           0.02406   0.01020  -0.00216  -0.00213  -0.01029
           D4          -0.01652  -0.00979   0.00110  -0.00436   0.00844
                          R6        R7        A1        A2        A3
           R6           0.03259
           R7          -0.06644   0.07760
           A1          -0.05453  -0.07484  -0.05475
           A2          -0.03651  -0.03940  -0.02172  -0.00269
           A3          -0.01001  -0.03106  -0.02328  -0.01382  -0.00636
           A4           0.04218   0.03962   0.03802   0.01403   0.00615
           A5          -0.01743  -0.02545  -0.01816  -0.00789  -0.00177
           A6           0.00445  -0.02794  -0.01402   0.00099  -0.01095
           A7           0.00731   0.02474   0.01165   0.00216   0.00538
           A8           0.01392  -0.00247  -0.01435  -0.01940   0.01734
           D1          -0.00849  -0.00597  -0.02897  -0.02206  -0.00731
           D2          -0.00758  -0.01856  -0.02053  -0.01056  -0.01685
           D3          -0.00134  -0.01221  -0.01904  -0.01534  -0.01230
           D4           0.00167   0.00598  -0.00309  -0.00015  -0.00287
                          A4        A5        A6        A7        A8
           A4          -0.02042
           A5           0.03227   0.02056
           A6           0.03087  -0.00622   0.04466
           A7          -0.01718  -0.04261  -0.00852   0.05146
           A8          -0.00079   0.00854  -0.04219   0.00018   0.08866
           D1          -0.00606   0.00373  -0.02665   0.00249   0.03291
           D2           0.01892  -0.00784   0.01752  -0.00324  -0.02801
           D3           0.02665  -0.01216   0.01211  -0.00308  -0.00401
           D4          -0.01827   0.01260  -0.00259  -0.00274  -0.00828
                          D1        D2        D3        D4
           D1           0.02894
           D2          -0.00855   0.00767
           D3          -0.00062   0.00035   0.00297
           D4           0.00482   0.00703  -0.00055   0.00856
 ITU=  1  0
     Eigenvalues ---   -0.57542  -0.04178  -0.03223  -0.00330   0.00124
     Eigenvalues ---    0.01066   0.01404   0.03431   0.03961   0.06715
     Eigenvalues ---    0.08684   0.11272   0.14117   0.16834   0.38532
 Cut down GDIIS temporarily because of the coefficient check. E 2
     Eigenvalues ---   -0.57542  -0.04178  -0.03223  -0.00330   0.00124
     Eigenvalues ---    0.01066   0.01404   0.03431   0.03961   0.06715
     Eigenvalues ---    0.08684   0.11272   0.14117   0.16834   0.38532
 Eigenvalue     1 is  -5.75D-01 should be greater than     0.000000 Eigenvector:
                          R1        A1        R5        R7        R6
   1                    0.67214  -0.36897  -0.34469  -0.30383  -0.23306
                          R2        A3        A5        A4        D2
   1                    0.18568  -0.15325  -0.15086   0.14663  -0.12569
 Eigenvalue     2 is  -4.18D-02 should be greater than     0.000000 Eigenvector:
                          A4        A5        R3        R1        D3
   1                    0.51790  -0.45284   0.38708  -0.29590  -0.29073
                          D4        D2        A2        A7        A1
   1                    0.23171  -0.20892  -0.17332  -0.15173   0.14593
 Eigenvalue     3 is  -3.22D-02 should be greater than     0.000000 Eigenvector:
                          A3        R3        A2        A4        A5
   1                   -0.49813   0.49042  -0.39565  -0.34272   0.24663
                          D4        D1        D2        A6        A7
   1                   -0.21818  -0.19836  -0.17490   0.14145   0.12345
 Eigenvalue     4 is  -3.30D-03 should be greater than     0.000000 Eigenvector:
                          D3        D4        R3        R1        A1
   1                    0.61497   0.46695   0.35521   0.28553   0.26173
                          R4        D2        D1        A3        A6
   1                    0.17940  -0.17453   0.15052   0.14811   0.09106
 Quadratic step=1.069D+02 exceeds max=5.045D-01 adjusted using Lamda=-4.037D-01.
 Angle between NR and scaled steps=  41.42 degrees.
 Angle between quadratic step and forces=  10.68 degrees.
 Linear search not attempted -- option 19 set.
 Iteration  1 RMS(Cart)=  0.12653018 RMS(Int)=  0.03608575
 Iteration  2 RMS(Cart)=  0.03559094 RMS(Int)=  0.00115594
 Iteration  3 RMS(Cart)=  0.00022885 RMS(Int)=  0.00112832
 Iteration  4 RMS(Cart)=  0.00000018 RMS(Int)=  0.00112832
 Variable       Old X    -DE/DX   Delta X   Delta X   Delta X     New X
                                 (Linear)    (Quad)   (Total)
    R1        3.14632  -0.17336   0.00000  -0.35378  -0.35378   2.79254
    R2        2.03341   0.01132   0.00000   0.03333   0.03333   2.06675
    R3        3.68047  -0.06665   0.00000  -0.17240  -0.17238   3.50808
    R4        3.99372   0.00098   0.00000   0.00059   0.00024   3.99396
    R5        2.31140  -0.05759   0.00000  -0.17151  -0.17151   2.13989
    R6        2.36448  -0.05135   0.00000  -0.14588  -0.14529   2.21919
    R7        2.20792  -0.03973   0.00000  -0.11726  -0.11726   2.09066
    A1        2.28989  -0.00020   0.00000  -0.04383  -0.04383   2.24606
    A2        1.79209   0.00296   0.00000  -0.00714  -0.00562   1.78647
    A3        2.33526  -0.01387   0.00000  -0.04946  -0.05071   2.28455
    A4        2.56664  -0.01242   0.00000  -0.01163  -0.01393   2.55271
    A5        2.00961  -0.00734   0.00000  -0.03571  -0.03805   1.97156
    A6        1.51448  -0.00474   0.00000  -0.01471  -0.01475   1.49973
    A7        1.64929   0.03734   0.00000   0.09012   0.08772   1.73701
    A8        1.57416  -0.00104   0.00000  -0.00486  -0.00515   1.56901
    D1        2.26732  -0.00929   0.00000  -0.02589  -0.02472   2.24260
    D2        2.61825  -0.00189   0.00000  -0.02035  -0.02151   2.59674
    D3       -2.41477   0.04119   0.00000   0.09598   0.09636  -2.31841
    D4        1.21414  -0.04096   0.00000  -0.09894  -0.09957   1.11457
         Item               Value     Threshold  Converged?
 Maximum Force            0.173357     0.000002     NO 
 RMS     Force            0.049972     0.000001     NO 
 Maximum Displacement     0.292966     0.000006     NO 
 RMS     Displacement     0.150068     0.000004     NO 
 Predicted change in Energy=-1.084274D-01
 GradGradGradGradGradGradGradGradGradGradGradGradGradGradGradGradGradGrad

                          Input orientation:                          
 ---------------------------------------------------------------------
 Center     Atomic      Atomic             Coordinates (Angstroms)
 Number     Number       Type             X           Y           Z
 ---------------------------------------------------------------------
      1          6           0       -2.924923   -1.532648    0.615604
      2          6           0       -2.170423   -0.372207    0.098060
      3          6           0       -0.986103   -0.018575    1.483175
      4          1           0       -0.529772    0.772091    2.153171
      5          1           0       -0.282765    0.405987    0.644041
      6          1           0       -0.271627   -0.844213    1.661525
      7          1           0       -4.007957   -1.668314    0.684585
 ---------------------------------------------------------------------
                    Distance matrix (angstroms):
                    1          2          3          4          5
     1  C    0.000000
     2  C    1.477750   0.000000
     3  C    2.608471   1.856398   0.000000
     4  H    3.662333   2.867862   1.132380   0.000000
     5  H    3.277211   2.113513   1.174344   1.572424   0.000000
     6  H    2.933918   2.504524   1.106329   1.709033   1.611955
     7  H    1.093675   2.323883   3.534259   4.495564   4.263968
                    6          7
     6  H    0.000000
     7  H    3.948888   0.000000
 Stoichiometry    C3H4
 Framework group  C1[X(C3H4)]
 Deg. of freedom    15
 Full point group                 C1      NOp   1
 Largest Abelian subgroup         C1      NOp   1
 Largest concise Abelian subgroup C1      NOp   1
                         Standard orientation:                         
 ---------------------------------------------------------------------
 Center     Atomic      Atomic             Coordinates (Angstroms)
 Number     Number       Type             X           Y           Z
 ---------------------------------------------------------------------
      1          6           0        1.373591   -0.345332    0.099064
      2          6           0        0.364357    0.728841   -0.007439
      3          6           0       -1.224337   -0.226740   -0.102987
      4          1           0       -2.213807   -0.357543   -0.637892
      5          1           0       -1.711484    0.721403    0.389758
      6          1           0       -1.433830   -0.808646    0.814325
      7          1           0        2.277451   -0.495835   -0.498023
 ---------------------------------------------------------------------
 Rotational constants (GHZ):          43.4089716           8.5792074           7.5222250
 Standard basis: CC-pVTZ (5D, 7F)
 There are   165 symmetry adapted cartesian basis functions of A   symmetry.
 There are   146 symmetry adapted basis functions of A   symmetry.
   146 basis functions,   224 primitive gaussians,   165 cartesian basis functions
    11 alpha electrons       11 beta electrons
       nuclear repulsion energy        52.1473763326 Hartrees.
 NAtoms=    7 NActive=    7 NUniq=    7 SFac= 1.00D+00 NAtFMM=   60 NAOKFM=F Big=F
 Integral buffers will be    131072 words long.
 Raffenetti 2 integral format.
 Two-electron integral symmetry is turned on.
 One-electron integrals computed using PRISM.
 NBasis=   146 RedAO= T EigKep=  1.33D-03  NBF=   146
 NBsUse=   146 1.00D-06 EigRej= -1.00D+00 NBFU=   146
 Initial guess from the checkpoint file:  "/scratch/dinius.ab/QMscratch/Gau-41866.chk"
 B after Tr=     0.000000    0.000000    0.000000
         Rot=    0.999959   -0.006959    0.000829    0.005786 Ang=  -1.04 deg.
 ExpMin= 1.03D-01 ExpMax= 8.24D+03 ExpMxC= 2.81D+02 IAcc=2 IRadAn=         4 AccDes= 0.00D+00
 Harris functional with IExCor= 1009 and IRadAn=       4 diagonalized for initial guess.
 HarFok:  IExCor= 1009 AccDes= 0.00D+00 IRadAn=         4 IDoV= 1 UseB2=F ITyADJ=14
 ICtDFT=  3500011 ScaDFX=  1.000000  1.000000  1.000000  1.000000
 FoFCou: FMM=F IPFlag=           0 FMFlag=      100000 FMFlg1=           0
         NFxFlg=           0 DoJE=T BraDBF=F KetDBF=T FulRan=T
         wScrn=  0.000000 ICntrl=       500 IOpCl=  0 I1Cent=   200000004 NGrid=           0
         NMat0=    1 NMatS0=      1 NMatT0=    0 NMatD0=    1 NMtDS0=    0 NMtDT0=    0
 Petite list used in FoFCou.
 Keep R1 ints in memory in canonical form, NReq=77430779.
 Requested convergence on RMS density matrix=1.00D-08 within 900 cycles.
 Requested convergence on MAX density matrix=1.00D-06.
 Requested convergence on             energy=1.00D-06.
 No special actions if energy rises.
 Integral accuracy reduced to 1.0D-05 until final iterations.
 Initial convergence to 1.0D-05 achieved.  Increase integral accuracy.
 SCF Done:  E(RM062X) =  -116.403341270     A.U. after   17 cycles
            NFock= 17  Conv=0.98D-08     -V/T= 2.0136
 Calling FoFJK, ICntrl=      2127 FMM=F ISym2X=0 I1Cent= 0 IOpClX= 0 NMat=1 NMatS=1 NMatT=0.
 ***** Axes restored to original set *****
 -------------------------------------------------------------------
 Center     Atomic                   Forces (Hartrees/Bohr)
 Number     Number              X              Y              Z
 -------------------------------------------------------------------
      1        6           0.074040933    0.141728991   -0.073981612
      2        6          -0.058559016   -0.126536772    0.129598448
      3        6           0.081487872    0.017427300   -0.086990530
      4        1          -0.054161490   -0.003321522    0.001927556
      5        1          -0.017245684   -0.011079466    0.019529752
      6        1          -0.030587841   -0.012148741    0.002942623
      7        1           0.005025226   -0.006069790    0.006973764
 -------------------------------------------------------------------
 Cartesian Forces:  Max     0.141728991 RMS     0.064269760

 GradGradGradGradGradGradGradGradGradGradGradGradGradGradGradGradGradGrad
 Berny optimization.
 Using GDIIS optimizer.
 FormGI is forming the generalized inverse of G from B-inverse, IUseBI=4.
 Internal  Forces:  Max     0.170366297 RMS     0.046170724
 Search for a local minimum.
 Step number   3 out of a maximum of  100
 All quantities printed in internal units (Hartrees-Bohrs-Radians)
 Swapping is turned off.
 Update second derivatives using D2CorX and points    2    3
 DE= -1.02D-01 DEPred=-1.08D-01 R= 9.44D-01
 TightC=F SS=  1.41D+00  RLast= 5.05D-01 DXNew= 8.4853D-01 1.5139D+00
 Trust test= 9.44D-01 RLast= 5.05D-01 DXMaxT set to 8.49D-01
 The second derivative matrix:
                          R1        R2        R3        R4        R5
           R1           0.49836
           R2           0.28801   0.56665
           R3          -0.05218  -0.03503   0.00048
           R4           0.02596   0.01149  -0.00655   0.03025
           R5          -0.35213  -0.21278   0.04566  -0.01704   0.40176
           R6          -0.25474  -0.14825   0.03843  -0.01639   0.20859
           R7          -0.38163  -0.22193   0.04770  -0.01586   0.30349
           A1          -0.22163  -0.14324   0.03143  -0.01026   0.20260
           A2          -0.05330  -0.03802   0.02659  -0.00191   0.05924
           A3          -0.08826  -0.05635   0.02915  -0.00950   0.08002
           A4           0.09632   0.06171  -0.01959   0.00684  -0.09021
           A5          -0.10679  -0.05969   0.01783  -0.00075   0.06960
           A6          -0.07020  -0.04272   0.00975  -0.01278   0.06642
           A7           0.02414   0.01097  -0.00287  -0.00411  -0.00228
           A8          -0.06866  -0.03821   0.00435  -0.01215   0.04204
           D1           0.00850   0.00158  -0.00523  -0.00265  -0.00760
           D2          -0.05829  -0.03631   0.01517  -0.00293   0.05331
           D3          -0.06143  -0.03587   0.00680  -0.00486   0.04906
           D4           0.03293   0.01833  -0.00453  -0.00275  -0.02912
                          R6        R7        A1        A2        A3
           R6           0.22376
           R7           0.21080   0.48023
           A1           0.14144   0.21019   0.14735
           A2           0.02983   0.05619   0.04538   0.02100
           A3           0.06909   0.08300   0.05686   0.01434   0.02711
           A4          -0.05115  -0.09583  -0.05782  -0.01823  -0.03234
           A5           0.05317   0.07727   0.05469   0.01625   0.02707
           A6           0.06186   0.05523   0.04470   0.02101   0.01290
           A7          -0.01242  -0.00397  -0.00871  -0.00459  -0.00268
           A8           0.05843   0.06242   0.03178  -0.00434   0.03536
           D1          -0.00439   0.00021  -0.02442  -0.02090  -0.00589
           D2           0.03825   0.04788   0.02642   0.00538   0.00214
           D3           0.04051   0.04913   0.02481  -0.00153   0.00426
           D4          -0.02463  -0.03229  -0.03024  -0.00913  -0.01360
                          A4        A5        A6        A7        A8
           A4           0.02516
           A5          -0.00226   0.04682
           A6           0.00286   0.01493   0.06191
           A7          -0.00753  -0.04995  -0.01443   0.05351
           A8          -0.02258   0.02518  -0.02888  -0.00447   0.09923
           D1          -0.00811   0.00539  -0.02546   0.00203   0.03401
           D2          -0.00345   0.00907   0.03129  -0.00797  -0.01735
           D3           0.00609   0.00367   0.02457  -0.00750   0.00613
           D4          -0.00541   0.00281  -0.01047  -0.00000  -0.01449
                          D1        D2        D3        D4
           D1           0.02912
           D2          -0.00758   0.01866
           D3           0.00056   0.01035   0.01289
           D4           0.00420   0.00073  -0.00646   0.01221
 ITU=  1  1  0
     Eigenvalues ---   -0.03756  -0.03202  -0.00406   0.00202   0.01140
     Eigenvalues ---    0.03214   0.03439   0.05531   0.07292   0.08690
     Eigenvalues ---    0.11724   0.13887   0.16484   0.36818   1.74179
 Cut down GDIIS temporarily because of the coefficient check. E 4
 DIIS coeff's:      5.08033     -4.08033
 Cosine:  0.980 >  0.970
 Length:  1.121
 GDIIS step was calculated using  2 of the last  3 vectors.
 Maximum step size (   0.849) exceeded in Quadratic search.
    -- Step size scaled by   0.154
 Iteration  1 RMS(Cart)=  0.14269524 RMS(Int)=  0.13836466
 Iteration  2 RMS(Cart)=  0.09064710 RMS(Int)=  0.04414004
 Iteration  3 RMS(Cart)=  0.03249686 RMS(Int)=  0.02247789
 Iteration  4 RMS(Cart)=  0.00404085 RMS(Int)=  0.02218272
 Iteration  5 RMS(Cart)=  0.00002569 RMS(Int)=  0.02218267
 Iteration  6 RMS(Cart)=  0.00000039 RMS(Int)=  0.02218267
 Variable       Old X    -DE/DX   Delta X   Delta X   Delta X     New X
                                 (Linear)    (Quad)   (Total)
    R1        2.79254  -0.17037  -0.22171  -0.06431  -0.28602   2.50652
    R2        2.06675  -0.00378   0.02089   0.03977   0.06066   2.12741
    R3        3.50808  -0.06193  -0.10803  -0.02841  -0.14831   3.35977
    R4        3.99396   0.00078   0.00015   0.11053   0.12027   4.11423
    R5        2.13989  -0.02301  -0.10748  -0.18415  -0.29164   1.84825
    R6        2.21919  -0.02906  -0.09105  -0.24259  -0.33341   1.88578
    R7        2.09066  -0.01021  -0.07349  -0.15536  -0.22884   1.86182
    A1        2.24606   0.01856  -0.02747   0.48923   0.46176   2.70783
    A2        1.78647   0.01376  -0.00352   0.16006   0.15865   1.94512
    A3        2.28455  -0.00142  -0.03178   0.00649  -0.01531   2.26924
    A4        2.55271  -0.02275  -0.00873  -0.16921  -0.21094   2.34177
    A5        1.97156  -0.00074  -0.02385   0.03698  -0.02741   1.94415
    A6        1.49973   0.00239  -0.00924   0.07892   0.09906   1.59879
    A7        1.73701   0.03548   0.05497   0.20808   0.22013   1.95714
    A8        1.56901   0.00244  -0.00323   0.06013   0.06180   1.63081
    D1        2.24260  -0.01000  -0.01549   0.45808   0.47726   2.71986
    D2        2.59674   0.00359  -0.01348   0.57022   0.52206   3.11881
    D3       -2.31841   0.04281   0.06039   0.20243   0.23230  -2.08610
    D4        1.11457  -0.04337  -0.06240  -0.34507  -0.39286   0.72171
         Item               Value     Threshold  Converged?
 Maximum Force            0.170366     0.000002     NO 
 RMS     Force            0.046171     0.000001     NO 
 Maximum Displacement     0.469577     0.000006     NO 
 RMS     Displacement     0.247157     0.000004     NO 
 Predicted change in Energy=-1.211980D-01
 GradGradGradGradGradGradGradGradGradGradGradGradGradGradGradGradGradGrad

                          Input orientation:                          
 ---------------------------------------------------------------------
 Center     Atomic      Atomic             Coordinates (Angstroms)
 Number     Number       Type             X           Y           Z
 ---------------------------------------------------------------------
      1          6           0       -2.958260   -1.286927    0.621403
      2          6           0       -2.232492   -0.230974    0.278559
      3          6           0       -0.874718    0.016302    1.399401
      4          1           0       -0.607435    0.743566    1.996253
      5          1           0       -0.161822    0.255223    0.743260
      6          1           0       -0.448302   -0.838266    1.641398
      7          1           0       -3.890540   -1.916804    0.659886
 ---------------------------------------------------------------------
                    Distance matrix (angstroms):
                    1          2          3          4          5
     1  C    0.000000
     2  C    1.326392   0.000000
     3  C    2.577757   1.777916   0.000000
     4  H    3.396983   2.557541   0.978052   0.000000
     5  H    3.195800   2.177157   0.997911   1.416702   0.000000
     6  H    2.746193   2.325826   0.985230   1.628938   1.443759
     7  H    1.125776   2.395110   3.657726   4.431954   4.316015
                    6          7
     6  H    0.000000
     7  H    3.738396   0.000000
 Stoichiometry    C3H4
 Framework group  C1[X(C3H4)]
 Deg. of freedom    15
 Full point group                 C1      NOp   1
 Largest Abelian subgroup         C1      NOp   1
 Largest concise Abelian subgroup C1      NOp   1
                         Standard orientation:                         
 ---------------------------------------------------------------------
 Center     Atomic      Atomic             Coordinates (Angstroms)
 Number     Number       Type             X           Y           Z
 ---------------------------------------------------------------------
      1          6           0        1.333878   -0.246183    0.017159
      2          6           0        0.342369    0.634799    0.007219
      3          6           0       -1.241412   -0.169749   -0.065765
      4          1           0       -1.985092   -0.154271   -0.700812
      5          1           0       -1.744768    0.400051    0.580599
      6          1           0       -1.269409   -0.961836    0.519464
      7          1           0        2.390260   -0.597144   -0.150927
 ---------------------------------------------------------------------
 Rotational constants (GHZ):          59.3571127           8.9142358           8.0401828
 Standard basis: CC-pVTZ (5D, 7F)
 There are   165 symmetry adapted cartesian basis functions of A   symmetry.
 There are   146 symmetry adapted basis functions of A   symmetry.
   146 basis functions,   224 primitive gaussians,   165 cartesian basis functions
    11 alpha electrons       11 beta electrons
       nuclear repulsion energy        55.7303249678 Hartrees.
 NAtoms=    7 NActive=    7 NUniq=    7 SFac= 1.00D+00 NAtFMM=   60 NAOKFM=F Big=F
 Integral buffers will be    131072 words long.
 Raffenetti 2 integral format.
 Two-electron integral symmetry is turned on.
 One-electron integrals computed using PRISM.
 NBasis=   146 RedAO= T EigKep=  7.13D-04  NBF=   146
 NBsUse=   146 1.00D-06 EigRej= -1.00D+00 NBFU=   146
 Initial guess from the checkpoint file:  "/scratch/dinius.ab/QMscratch/Gau-41866.chk"
 B after Tr=    -0.000000   -0.000000    0.000000
         Rot=    0.998321   -0.057440    0.002746   -0.007004 Ang=  -6.64 deg.
 ExpMin= 1.03D-01 ExpMax= 8.24D+03 ExpMxC= 2.81D+02 IAcc=2 IRadAn=         4 AccDes= 0.00D+00
 Harris functional with IExCor= 1009 and IRadAn=       4 diagonalized for initial guess.
 HarFok:  IExCor= 1009 AccDes= 0.00D+00 IRadAn=         4 IDoV= 1 UseB2=F ITyADJ=14
 ICtDFT=  3500011 ScaDFX=  1.000000  1.000000  1.000000  1.000000
 FoFCou: FMM=F IPFlag=           0 FMFlag=      100000 FMFlg1=           0
         NFxFlg=           0 DoJE=T BraDBF=F KetDBF=T FulRan=T
         wScrn=  0.000000 ICntrl=       500 IOpCl=  0 I1Cent=   200000004 NGrid=           0
         NMat0=    1 NMatS0=      1 NMatT0=    0 NMatD0=    1 NMtDS0=    0 NMtDT0=    0
 Petite list used in FoFCou.
 Keep R1 ints in memory in canonical form, NReq=77430779.
 Requested convergence on RMS density matrix=1.00D-08 within 900 cycles.
 Requested convergence on MAX density matrix=1.00D-06.
 Requested convergence on             energy=1.00D-06.
 No special actions if energy rises.
 Integral accuracy reduced to 1.0D-05 until final iterations.
 Initial convergence to 1.0D-05 achieved.  Increase integral accuracy.
 SCF Done:  E(RM062X) =  -116.488617560     A.U. after   16 cycles
            NFock= 16  Conv=0.99D-08     -V/T= 2.0071
 Calling FoFJK, ICntrl=      2127 FMM=F ISym2X=0 I1Cent= 0 IOpClX= 0 NMat=1 NMatS=1 NMatT=0.
 ***** Axes restored to original set *****
 -------------------------------------------------------------------
 Center     Atomic                   Forces (Hartrees/Bohr)
 Number     Number              X              Y              Z
 -------------------------------------------------------------------
      1        6           0.023037581    0.090151476   -0.048397817
      2        6          -0.015582103   -0.100276065    0.114542534
      3        6          -0.083553550   -0.017670074   -0.108485474
      4        1          -0.018949614    0.079443417    0.077102720
      5        1           0.052939504    0.021620734   -0.071306152
      6        1           0.011563187   -0.087787437    0.037425649
      7        1           0.030544994    0.014517948   -0.000881460
 -------------------------------------------------------------------
 Cartesian Forces:  Max     0.114542534 RMS     0.063559619

 GradGradGradGradGradGradGradGradGradGradGradGradGradGradGradGradGradGrad
 Berny optimization.
 Using GDIIS optimizer.
 FormGI is forming the generalized inverse of G from B-inverse, IUseBI=4.
 Internal  Forces:  Max     0.125382635 RMS     0.053299839
 Search for a local minimum.
 Step number   4 out of a maximum of  100
 All quantities printed in internal units (Hartrees-Bohrs-Radians)
 Swapping is turned off.
 Update second derivatives using D2CorX and points    3    4
 DE= -8.53D-02 DEPred=-1.21D-01 R= 7.04D-01
 TightC=F SS=  1.41D+00  RLast= 1.19D+00 DXNew= 1.4270D+00 3.5814D+00
 Trust test= 7.04D-01 RLast= 1.19D+00 DXMaxT set to 1.43D+00
 The second derivative matrix:
                          R1        R2        R3        R4        R5
           R1           0.41446
           R2           0.27671   0.57472
           R3          -0.03095  -0.03285  -0.00484
           R4           0.02682   0.01057  -0.00670   0.03035
           R5          -0.31147  -0.24642   0.03813  -0.01322   0.54168
           R6          -0.23025  -0.17795   0.03456  -0.01307   0.33138
           R7          -0.34625  -0.24924   0.04101  -0.01275   0.41724
           A1          -0.21021  -0.14088   0.02848  -0.01047   0.19371
           A2          -0.07854  -0.03958   0.03285  -0.00185   0.06393
           A3          -0.10559  -0.06395   0.03390  -0.00875   0.10990
           A4           0.11401   0.06562  -0.02418   0.00649  -0.10500
           A5          -0.13027  -0.05936   0.02353  -0.00089   0.06671
           A6          -0.06015  -0.04983   0.00780  -0.01197   0.09610
           A7           0.02929   0.01488  -0.00440  -0.00451  -0.01787
           A8          -0.04783  -0.04339  -0.00036  -0.01149   0.06452
           D1          -0.00426   0.00286  -0.00221  -0.00285  -0.01369
           D2          -0.07445  -0.03966   0.01934  -0.00264   0.06592
           D3          -0.07887  -0.03252   0.01081  -0.00530   0.03426
           D4           0.01986   0.01688  -0.00124  -0.00265  -0.02405
                          R6        R7        A1        A2        A3
           R6           0.33021
           R7           0.31089   0.57265
           A1           0.13528   0.20263   0.14586
           A2           0.03083   0.06064   0.04897   0.01377
           A3           0.09227   0.10793   0.05877   0.00811   0.02642
           A4          -0.06155  -0.10839  -0.06009  -0.01262  -0.02952
           A5           0.04799   0.07547   0.05819   0.00986   0.02030
           A6           0.08807   0.07933   0.04261   0.02240   0.01962
           A7          -0.02497  -0.01688  -0.00913  -0.00242  -0.00338
           A8           0.07983   0.08035   0.02826   0.00039   0.04404
           D1          -0.01102  -0.00447  -0.02242  -0.02416  -0.01018
           D2           0.04701   0.05862   0.02852   0.00029  -0.00055
           D3           0.02598   0.03742   0.02768  -0.00567  -0.00247
           D4          -0.02189  -0.02782  -0.02843  -0.01300  -0.01647
                          A4        A5        A6        A7        A8
           A4           0.02167
           A5           0.00324   0.04152
           A6          -0.00060   0.01465   0.06819
           A7          -0.00811  -0.04734  -0.01788   0.05427
           A8          -0.02824   0.02810  -0.02432  -0.00842   0.10071
           D1          -0.00494   0.00291  -0.02659   0.00382   0.03468
           D2          -0.00023   0.00412   0.03426  -0.00737  -0.01236
           D3           0.01067   0.00087   0.02163  -0.00452   0.00572
           D4          -0.00260  -0.00074  -0.00918   0.00091  -0.01150
                          D1        D2        D3        D4
           D1           0.02813
           D2          -0.01040   0.01569
           D3          -0.00031   0.00629   0.01265
           D4           0.00231  -0.00183  -0.00900   0.01018
 ITU=  1  1  1  0
     Eigenvalues ---   -0.09374  -0.03046  -0.00463   0.00398   0.01105
     Eigenvalues ---    0.02844   0.03375   0.06119   0.07121   0.10637
     Eigenvalues ---    0.13510   0.16007   0.20292   0.39262   1.89795
 Cosine:  0.400 <  0.840
 Cut down GDIIS temporarily because of the cosine check. E 7
 DIIS coeff's:      0.86092      0.13908
 Cosine:  1.000 >  0.970
 Length:  0.997
 GDIIS step was calculated using  2 of the last  4 vectors.
 Maximum step size (   1.427) exceeded in Quadratic search.
    -- Step size scaled by   0.095
 Iteration  1 RMS(Cart)=  0.13538209 RMS(Int)=  0.30718558
 Iteration  2 RMS(Cart)=  0.13047146 RMS(Int)=  0.21231814
 Iteration  3 RMS(Cart)=  0.14182967 RMS(Int)=  0.12561964
 Iteration  4 RMS(Cart)=  0.10761278 RMS(Int)=  0.04918295
 Iteration  5 RMS(Cart)=  0.05245517 RMS(Int)=  0.02561040
 Iteration  6 RMS(Cart)=  0.00151684 RMS(Int)=  0.02556936
 Iteration  7 RMS(Cart)=  0.00006568 RMS(Int)=  0.02556931
 Iteration  8 RMS(Cart)=  0.00000477 RMS(Int)=  0.02556931
 Iteration  9 RMS(Cart)=  0.00000033 RMS(Int)=  0.02556931
 Variable       Old X    -DE/DX   Delta X   Delta X   Delta X     New X
                                 (Linear)    (Quad)   (Total)
    R1        2.50652  -0.12538   0.00376  -0.51136  -0.50760   1.99892
    R2        2.12741  -0.03345  -0.00080   0.02103   0.02023   2.14764
    R3        3.35977  -0.07079   0.00195  -1.05303  -1.01817   2.34160
    R4        4.11423   0.00419  -0.00158  -0.18012  -0.22486   3.88937
    R5        1.84825   0.10095   0.00384   0.05359   0.05743   1.90568
    R6        1.88578   0.08077   0.00439   0.07412   0.12368   2.00946
    R7        1.86182   0.09034   0.00301   0.00143   0.00444   1.86626
    A1        2.70783   0.00938  -0.00608  -0.70331  -0.70939   1.99844
    A2        1.94512   0.02041  -0.00209   0.23992   0.27939   2.22451
    A3        2.26924   0.02749   0.00020   0.05999   0.03590   2.30514
    A4        2.34177  -0.03791   0.00278   0.06085   0.04089   2.38266
    A5        1.94415  -0.00117   0.00036  -0.13527  -0.14574   1.79841
    A6        1.59879   0.02856  -0.00130  -0.18115  -0.20169   1.39710
    A7        1.95714   0.02076  -0.00290  -0.01723  -0.03283   1.92431
    A8        1.63081   0.02101  -0.00081  -0.02496  -0.02522   1.60559
    D1        2.71986  -0.01436  -0.00628  -0.70501  -0.66714   2.05273
    D2        3.11881   0.01662  -0.00687  -0.46499  -0.51602   2.60279
    D3       -2.08610   0.03093  -0.00306  -0.20510  -0.20451  -2.29061
    D4        0.72171  -0.03751   0.00517  -0.58874  -0.57725   0.14446
         Item               Value     Threshold  Converged?
 Maximum Force            0.125383     0.000002     NO 
 RMS     Force            0.053300     0.000001     NO 
 Maximum Displacement     0.884516     0.000006     NO 
 RMS     Displacement     0.431839     0.000004     NO 
 Predicted change in Energy=-1.572962D-01
 GradGradGradGradGradGradGradGradGradGradGradGradGradGradGradGradGradGrad

                          Input orientation:                          
 ---------------------------------------------------------------------
 Center     Atomic      Atomic             Coordinates (Angstroms)
 Number     Number       Type             X           Y           Z
 ---------------------------------------------------------------------
      1          6           0       -2.538757   -1.361281    0.486361
      2          6           0       -2.118063   -0.393794    0.563102
      3          6           0       -1.116457   -0.056759    1.210108
      4          1           0       -0.880057    0.671999    1.865837
      5          1           0       -0.179623    0.251425    0.812486
      6          1           0       -0.743873   -0.920732    1.510183
      7          1           0       -3.596740   -1.448738    0.892083
 ---------------------------------------------------------------------
                    Distance matrix (angstroms):
                    1          2          3          4          5
     1  C    0.000000
     2  C    1.057783   0.000000
     3  C    2.061195   1.239122   0.000000
     4  H    2.964535   2.089424   1.008442   0.000000
     5  H    2.876229   2.058166   1.063362   1.333055   0.000000
     6  H    2.112796   1.750150   0.987580   1.637629   1.476181
     7  H    1.136480   1.845975   2.861913   3.581353   3.817536
                    6          7
     6  H    0.000000
     7  H    2.966428   0.000000
 Stoichiometry    C3H4
 Framework group  C1[X(C3H4)]
 Deg. of freedom    15
 Full point group                 C1      NOp   1
 Largest Abelian subgroup         C1      NOp   1
 Largest concise Abelian subgroup C1      NOp   1
                         Standard orientation:                         
 ---------------------------------------------------------------------
 Center     Atomic      Atomic             Coordinates (Angstroms)
 Number     Number       Type             X           Y           Z
 ---------------------------------------------------------------------
      1          6           0        1.111635   -0.215032    0.084282
      2          6           0        0.224202    0.358290    0.135964
      3          6           0       -0.934320   -0.025288   -0.078785
      4          1           0       -1.722437    0.294663   -0.620502
      5          1           0       -1.709003   -0.135041    0.641326
      6          1           0       -0.832155   -1.003446   -0.168686
      7          1           0        1.854497    0.136001   -0.700905
 ---------------------------------------------------------------------
 Rotational constants (GHZ):         103.9561633          13.4599280          12.9066782
 Standard basis: CC-pVTZ (5D, 7F)
 There are   165 symmetry adapted cartesian basis functions of A   symmetry.
 There are   146 symmetry adapted basis functions of A   symmetry.
   146 basis functions,   224 primitive gaussians,   165 cartesian basis functions
    11 alpha electrons       11 beta electrons
       nuclear repulsion energy        67.6962108419 Hartrees.
 NAtoms=    7 NActive=    7 NUniq=    7 SFac= 1.00D+00 NAtFMM=   60 NAOKFM=F Big=F
 Integral buffers will be    131072 words long.
 Raffenetti 2 integral format.
 Two-electron integral symmetry is turned on.
 One-electron integrals computed using PRISM.
 NBasis=   146 RedAO= T EigKep=  2.76D-04  NBF=   146
 NBsUse=   146 1.00D-06 EigRej= -1.00D+00 NBFU=   146
 Initial guess from the checkpoint file:  "/scratch/dinius.ab/QMscratch/Gau-41866.chk"
 B after Tr=     0.000000    0.000000   -0.000000
         Rot=    0.957384   -0.288327    0.003569   -0.016480 Ang= -33.57 deg.
 ExpMin= 1.03D-01 ExpMax= 8.24D+03 ExpMxC= 2.81D+02 IAcc=2 IRadAn=         4 AccDes= 0.00D+00
 Harris functional with IExCor= 1009 and IRadAn=       4 diagonalized for initial guess.
 HarFok:  IExCor= 1009 AccDes= 0.00D+00 IRadAn=         4 IDoV= 1 UseB2=F ITyADJ=14
 ICtDFT=  3500011 ScaDFX=  1.000000  1.000000  1.000000  1.000000
 FoFCou: FMM=F IPFlag=           0 FMFlag=      100000 FMFlg1=           0
         NFxFlg=           0 DoJE=T BraDBF=F KetDBF=T FulRan=T
         wScrn=  0.000000 ICntrl=       500 IOpCl=  0 I1Cent=   200000004 NGrid=           0
         NMat0=    1 NMatS0=      1 NMatT0=    0 NMatD0=    1 NMtDS0=    0 NMtDT0=    0
 Petite list used in FoFCou.
 Keep R1 ints in memory in canonical form, NReq=77430779.
 Requested convergence on RMS density matrix=1.00D-08 within 900 cycles.
 Requested convergence on MAX density matrix=1.00D-06.
 Requested convergence on             energy=1.00D-06.
 No special actions if energy rises.
 Integral accuracy reduced to 1.0D-05 until final iterations.
 Initial convergence to 1.0D-05 achieved.  Increase integral accuracy.
 SCF Done:  E(RM062X) =  -116.379996662     A.U. after   14 cycles
            NFock= 14  Conv=0.71D-08     -V/T= 1.9875
 Calling FoFJK, ICntrl=      2127 FMM=F ISym2X=0 I1Cent= 0 IOpClX= 0 NMat=1 NMatS=1 NMatT=0.
 ***** Axes restored to original set *****
 -------------------------------------------------------------------
 Center     Atomic                   Forces (Hartrees/Bohr)
 Number     Number              X              Y              Z
 -------------------------------------------------------------------
      1        6          -0.336468305   -0.431782967   -0.056135490
      2        6           0.056677008    0.356383382   -0.077137759
      3        6           0.222356908    0.108531023    0.085074725
      4        1          -0.025499561    0.052444546    0.062018473
      5        1           0.017662431    0.011687143   -0.053947048
      6        1           0.039573527   -0.064862382    0.057875036
      7        1           0.025697992   -0.032400744   -0.017747937
 -------------------------------------------------------------------
 Cartesian Forces:  Max     0.431782967 RMS     0.158742565

 GradGradGradGradGradGradGradGradGradGradGradGradGradGradGradGradGradGrad
 Berny optimization.
 Using GDIIS optimizer.
 FormGI is forming the generalized inverse of G from B-inverse, IUseBI=4.
 Internal  Forces:  Max     0.553519404 RMS     0.152348972
 Search for a local minimum.
 Step number   5 out of a maximum of  100
 All quantities printed in internal units (Hartrees-Bohrs-Radians)
 Swapping is turned off.
 Update second derivatives using D2CorX and points    4    5
 DE=  1.09D-01 DEPred=-1.57D-01 R=-6.91D-01
 Trust test=-6.91D-01 RLast= 1.76D+00 DXMaxT set to 7.14D-01
 The second derivative matrix:
                          R1        R2        R3        R4        R5
           R1           0.77408
           R2           0.16355   0.51536
           R3           0.29608  -0.01695   0.14391
           R4           0.06887   0.01028   0.01535   0.03351
           R5          -0.08790  -0.12158  -0.00275  -0.01368   0.27948
           R6          -0.09867  -0.06963  -0.03310  -0.01809   0.10544
           R7          -0.10990  -0.12993   0.01364  -0.01151   0.16609
           A1          -0.05156  -0.08998   0.04662  -0.00566   0.08512
           A2          -0.01663  -0.03150   0.05467   0.00163   0.04577
           A3           0.01802  -0.02341   0.04694  -0.00512   0.02348
           A4           0.08303   0.03763  -0.00514   0.00801  -0.04669
           A5          -0.06338  -0.05016   0.04652   0.00281   0.04614
           A6           0.05952  -0.02761   0.04171  -0.00614   0.04741
           A7           0.01991   0.02899  -0.02689  -0.00713  -0.04665
           A8           0.06030   0.00020   0.00088  -0.00943  -0.02776
           D1          -0.02985   0.00692  -0.02048  -0.00530  -0.02138
           D2          -0.05199  -0.04361   0.03586  -0.00044   0.07348
           D3          -0.04056   0.01623  -0.03042  -0.00911  -0.06689
           D4           0.07046   0.02438   0.01546   0.00007  -0.04075
                          R6        R7        A1        A2        A3
           R6           0.14230
           R7           0.09201   0.33298
           A1           0.03437   0.10127   0.10881
           A2           0.01003   0.04512   0.04703   0.01643
           A3           0.01227   0.02717   0.02897   0.00633   0.00247
           A4          -0.01339  -0.05178  -0.03369  -0.00700  -0.00860
           A5           0.02479   0.05776   0.05559   0.01260   0.01800
           A6           0.03744   0.03585   0.03182   0.02562   0.01067
           A7          -0.04601  -0.04581  -0.02512  -0.00728  -0.01594
           A8          -0.00296  -0.00686  -0.00643  -0.00352   0.01630
           D1          -0.01408  -0.01314  -0.02947  -0.02740  -0.01563
           D2           0.05031   0.06703   0.03512   0.00325   0.00456
           D3          -0.05586  -0.06141  -0.01998  -0.01673  -0.04016
           D4          -0.04031  -0.04234  -0.03099  -0.01109  -0.01867
                          A4        A5        A6        A7        A8
           A4           0.00934
           A5           0.00950   0.04434
           A6           0.01289   0.01784   0.07025
           A7          -0.00286  -0.05264  -0.02804   0.05321
           A8          -0.00671   0.02350  -0.03728  -0.02036   0.06980
           D1          -0.00432  -0.00057  -0.03258   0.00496   0.03025
           D2          -0.00093   0.00731   0.03977  -0.00832  -0.00816
           D3           0.03153  -0.01137  -0.00397  -0.01267  -0.03245
           D4           0.00235   0.00121  -0.00711  -0.00317  -0.01543
                          D1        D2        D3        D4
           D1           0.02978
           D2          -0.01187   0.01699
           D3          -0.00047   0.00669  -0.02219
           D4          -0.00031   0.00056  -0.01861   0.01152
 ITU= -1  1  1  1  0
     Eigenvalues ---   -0.10313  -0.08710  -0.02483   0.00980   0.01591
     Eigenvalues ---    0.02661   0.03334   0.05980   0.10303   0.11299
     Eigenvalues ---    0.14371   0.16196   0.35298   0.69134   1.10176
 Cosine:  0.966 <  0.970
 Cut down GDIIS temporarily because of the cosine check. E 6
     Eigenvalues ---   -0.10313  -0.08710  -0.02483   0.00980   0.01591
     Eigenvalues ---    0.02661   0.03334   0.05980   0.10303   0.11299
     Eigenvalues ---    0.14371   0.16196   0.35298   0.69134   1.10176
 Eigenvalue     1 is  -1.03D-01 should be greater than     0.000000 Eigenvector:
                          D3        R3        A8        D4        A5
   1                   -0.42020  -0.39484  -0.34160  -0.33233   0.29794
                          A2        D2        R4        R1        D1
   1                    0.25455   0.24025  -0.22972   0.21723   0.21106
 Eigenvalue     2 is  -8.71D-02 should be greater than     0.000000 Eigenvector:
                          D3        A3        R3        A4        D4
   1                   -0.57107  -0.42985   0.36955   0.35091  -0.27677
                          A2        R1        R6        D1        A5
   1                   -0.25377  -0.18652  -0.11193  -0.10709  -0.10605
[...]
           D4          -0.86539   0.70082  -3.34506  -0.11807  -0.17223
                          A4        A5        A6        A7        A8
           A4          -0.03785
           A5           0.22811  -0.05703
           A6          -0.23174   0.39127  -0.04297
           A7           0.00166  -0.23648  -0.13521   0.28703
           A8          -0.00783  -0.14823  -0.19542   0.22144   0.35082
           D1           0.09455  -0.10030   0.12045  -0.03391  -0.01420
           D2          -0.09462   0.09996  -0.12063   0.03426   0.01457
           D3          -0.04197  -0.36667  -0.46755   0.56920   0.58242
           D4          -0.49285   0.32981  -0.99350   0.60040   0.47687
                          D1        D2        D3        D4
           D1          -0.03380
           D2           0.03376  -0.03371
           D3          -0.03755   0.03847   1.45053
           D4           0.21005  -0.20916   1.13746  -0.35726
 ITU=  1  1  1  1  1  1  0  1  0  1  1 -1 -1  1  1  1  0  1 -1  1
     Eigenvalues ---   -5.60082   0.00000   0.02327   0.04917   0.07010
     Eigenvalues ---    0.09972   0.11989   0.13984   0.18921   0.29129
     Eigenvalues ---    0.33331   0.37683   0.48037   0.95824  12.11564
 Eigenvalue     2 is   4.59D-08 Eigenvector:
                          D2        D1        A2        A6        A3
   1                   -0.70753  -0.70668  -0.00045   0.00035   0.00030
                          A4        D3        A5        A1        R4
   1                   -0.00029   0.00019  -0.00016  -0.00014   0.00012
 Cosine:  0.503 <  0.670
 Cut down GDIIS temporarily because of the cosine check. E 7
 DIIS coeff's:      0.92470      0.16285     -0.21503      0.12749
 Cosine:  0.822 >  0.710
 Length:  1.261
 GDIIS step was calculated using  4 of the last 13 vectors.
 Iteration  1 RMS(Cart)=  0.00032424 RMS(Int)=  0.00005209
 Iteration  2 RMS(Cart)=  0.00001329 RMS(Int)=  0.00000045
 Iteration  3 RMS(Cart)=  0.00000028 RMS(Int)=  0.00000038
 Variable       Old X    -DE/DX   Delta X   Delta X   Delta X     New X
                                 (Linear)    (Quad)   (Total)
    R1        2.26132   0.00008  -0.00001  -0.00006  -0.00007   2.26125
    R2        2.00683  -0.00000  -0.00006  -0.00009  -0.00015   2.00668
    R3        2.75380   0.00012   0.00009  -0.00014  -0.00005   2.75375
    R4        3.97559   0.00005   0.00004   0.00005   0.00009   3.97569
    R5        2.05813   0.00004  -0.00008   0.00022   0.00014   2.05827
    R6        2.05764   0.00014  -0.00009   0.00023   0.00014   2.05777
    R7        2.05808   0.00003   0.00003   0.00024   0.00027   2.05835
    A1        3.13620   0.00029  -0.00006   0.00011   0.00005   3.13625
    A2        3.13941   0.00007   0.00024   0.00055   0.00079   3.14021
    A3        2.63695  -0.00009  -0.00009  -0.00033  -0.00042   2.63653
    A4        1.92966   0.00013   0.00019   0.00008   0.00027   1.92993
    A5        1.93041  -0.00002  -0.00005   0.00002  -0.00003   1.93038
    A6        1.89030   0.00006  -0.00001  -0.00001  -0.00002   1.89028
    A7        1.89052  -0.00001  -0.00001  -0.00016  -0.00017   1.89035
    A8        1.89130  -0.00004  -0.00015   0.00007  -0.00008   1.89122
    D1       -2.46124   0.00000   0.00002  -0.00040  -0.00038  -2.46161
    D2       -0.35982  -0.00000   0.00015   0.00037   0.00051  -0.35931
    D3       -2.08466  -0.00003  -0.00013  -0.00005  -0.00018  -2.08483
    D4        0.00935   0.00003  -0.00005  -0.00018  -0.00024   0.00911
         Item               Value     Threshold  Converged?
 Maximum Force            0.000295     0.000002     NO 
 RMS     Force            0.000094     0.000001     NO 
 Maximum Displacement     0.000916     0.000006     NO 
 RMS     Displacement     0.000338     0.000004     NO 
 Predicted change in Energy=-3.750587D-08
 GradGradGradGradGradGradGradGradGradGradGradGradGradGradGradGradGradGrad

                          Input orientation:                          
 ---------------------------------------------------------------------
 Center     Atomic      Atomic             Coordinates (Angstroms)
 Number     Number       Type             X           Y           Z
 ---------------------------------------------------------------------
      1          6           0       -3.073402   -1.181381    0.606993
      2          6           0       -2.033826   -0.676898    0.917851
      3          6           0       -0.767247   -0.064270    1.297274
      4          1           0       -0.935871    0.788361    1.953720
      5          1           0       -0.230543    0.283521    0.415940
      6          1           0       -0.136912   -0.780884    1.822220
      7          1           0       -3.995770   -1.626328    0.326163
 ---------------------------------------------------------------------
                    Distance matrix (angstroms):
                    1          2          3          4          5
     1  C    0.000000
     2  C    1.196601   0.000000
     3  C    2.653823   1.457223   0.000000
     4  H    3.203528   2.103690   1.089190   0.000000
     5  H    3.203793   2.103842   1.088926   1.765536   0.000000
     6  H    3.203147   2.104039   1.089232   1.765830   1.766167
     7  H    1.061888   2.258481   3.715702   4.224055   4.222857
                    6          7
     6  H    0.000000
     7  H    4.224186   0.000000
 Stoichiometry    C3H4
 Framework group  C1[X(C3H4)]
 Deg. of freedom    15
 Full point group                 C1      NOp   1
 Largest Abelian subgroup         C1      NOp   1
 Largest concise Abelian subgroup C1      NOp   1
                         Standard orientation:                         
 ---------------------------------------------------------------------
 Center     Atomic      Atomic             Coordinates (Angstroms)
 Number     Number       Type             X           Y           Z
 ---------------------------------------------------------------------
      1          6           0        1.415975    0.000930    0.000297
      2          6           0        0.219375   -0.000385    0.000295
      3          6           0       -1.237848   -0.000042   -0.000260
      4          1           0       -1.621092   -0.239377    0.990789
      5          1           0       -1.620981   -0.738678   -0.702673
      6          1           0       -1.620791    0.978162   -0.288178
      7          1           0        2.477853   -0.003125   -0.001927
 ---------------------------------------------------------------------
 Rotational constants (GHZ):         160.8138675           8.6260900           8.6258967
 Standard basis: CC-pVTZ (5D, 7F)
 There are   165 symmetry adapted cartesian basis functions of A   symmetry.
 There are   146 symmetry adapted basis functions of A   symmetry.
   146 basis functions,   224 primitive gaussians,   165 cartesian basis functions
    11 alpha electrons       11 beta electrons
       nuclear repulsion energy        58.9438669665 Hartrees.
 NAtoms=    7 NActive=    7 NUniq=    7 SFac= 1.00D+00 NAtFMM=   60 NAOKFM=F Big=F
 Integral buffers will be    131072 words long.
 Raffenetti 2 integral format.
 Two-electron integral symmetry is turned on.
 One-electron integrals computed using PRISM.
 NBasis=   146 RedAO= T EigKep=  4.70D-05  NBF=   146
 NBsUse=   146 1.00D-06 EigRej= -1.00D+00 NBFU=   146
 Initial guess from the checkpoint file:  "/scratch/dinius.ab/QMscratch/Gau-41866.chk"
 B after Tr=     0.000000    0.000000    0.000000
         Rot=    0.999755    0.022118    0.000003   -0.000013 Ang=   2.53 deg.
 Keep R1 ints in memory in canonical form, NReq=77430779.
 Requested convergence on RMS density matrix=1.00D-08 within 900 cycles.
 Requested convergence on MAX density matrix=1.00D-06.
 Requested convergence on             energy=1.00D-06.
 No special actions if energy rises.
 SCF Done:  E(RM062X) =  -116.641915903     A.U. after    6 cycles
            NFock=  6  Conv=0.57D-08     -V/T= 2.0060
 Calling FoFJK, ICntrl=      2127 FMM=F ISym2X=0 I1Cent= 0 IOpClX= 0 NMat=1 NMatS=1 NMatT=0.
 ***** Axes restored to original set *****
 -------------------------------------------------------------------
 Center     Atomic                   Forces (Hartrees/Bohr)
 Number     Number              X              Y              Z
 -------------------------------------------------------------------
      1        6          -0.000088478    0.000101597   -0.000259937
      2        6           0.000049017   -0.000115256    0.000057043
      3        6          -0.000001990    0.000078620    0.000250359
      4        1           0.000024868   -0.000009406    0.000008803
      5        1           0.000092069    0.000002503   -0.000113408
      6        1          -0.000013296    0.000032180   -0.000065033
      7        1          -0.000062191   -0.000090238    0.000122173
 -------------------------------------------------------------------
 Cartesian Forces:  Max     0.000259937 RMS     0.000104204

 GradGradGradGradGradGradGradGradGradGradGradGradGradGradGradGradGradGrad
 Berny optimization.
 Using GDIIS optimizer.
 FormGI is forming the generalized inverse of G from B-inverse, IUseBI=4.
 Internal  Forces:  Max     0.000307436 RMS     0.000096373
 Search for a local minimum.
 Step number  28 out of a maximum of  100
 All quantities printed in internal units (Hartrees-Bohrs-Radians)
 Swapping is turned off.
 Update second derivatives using D2CorX and points   19   20   21   22   23
                                                     24   25   26   27   28
 DE= -1.71D-07 DEPred=-3.75D-08 R= 4.56D+00
 Trust test= 4.56D+00 RLast= 1.25D-03 DXMaxT set to 6.44D-01
 The second derivative matrix:
                          R1        R2        R3        R4        R5
           R1          -0.33950
           R2          -0.81405   0.01556
           R3          -1.17227  -0.62626  -0.58354
           R4          -0.31330  -0.18131  -0.20296   0.01291
           R5          -0.41985  -0.22332  -0.21158  -0.00137   0.41651
           R6          -3.04221  -1.46072  -1.91924  -0.28997  -0.03010
           R7          -0.18551  -0.09515   0.03290   0.06859   0.20122
           A1          -0.32150  -0.20533  -0.68920  -0.35197  -0.72121
           A2          -0.73698  -0.35651  -0.42879  -0.04371   0.01702
           A3          -1.93471  -0.93165  -1.19520  -0.16139   0.02351
           A4          -0.65541  -0.33923  -0.39466  -0.08470  -0.04237
           A5           0.87499   0.39195   0.59717   0.10884   0.04298
           A6          -0.72693  -0.34334  -0.53626  -0.15514  -0.16562
           A7          -0.00344   0.01314   0.09365   0.04499   0.10622
           A8          -0.06818  -0.05954   0.07174   0.02223   0.11726
           D1           0.36672   0.17023   0.24440   0.04755   0.01802
           D2          -0.36665  -0.17011  -0.24430  -0.04749  -0.01784
           D3          -0.37131  -0.17222  -0.06037   0.08639   0.25340
           D4          -2.08315  -1.00467  -1.23586  -0.19702   0.01882
                          R6        R7        A1        A2        A3
           R6          -2.26534
           R7           0.67977   0.68237
           A1          -3.24112  -0.84241   1.86597
           A2          -0.48854   0.22387  -0.91531  -0.02554
           A3          -1.46248   0.52947  -2.26615  -0.21645  -0.66384
           A4          -0.74152   0.06868  -0.58850  -0.15162  -0.47396
           A5           0.82702  -0.12738   0.80180   0.13709   0.46203
           A6          -1.31436  -0.05575  -0.26492  -0.33550  -0.89595
           A7           0.51773   0.15177  -0.33381   0.14787   0.35138
           A8           0.41340   0.19706  -0.43713   0.10343   0.28575
           D1           0.37016  -0.05480   0.33319   0.06445   0.21104
           D2          -0.36953   0.05501  -0.33359  -0.06428  -0.21052
           D3           0.81379   0.41961  -1.20095   0.25778   0.63616
           D4          -1.57462   0.51157  -2.33938  -0.28721  -0.87099
                          A4        A5        A6        A7        A8
           A4          -0.07177
           A5           0.21430  -0.12540
           A6          -0.32258   0.36462  -0.26908
           A7           0.05693  -0.15916   0.02585   0.12835
           A8           0.05019  -0.07287  -0.04162   0.06719   0.20139
           D1           0.10521  -0.11074   0.15837  -0.04584  -0.02708
           D2          -0.10519   0.11055  -0.15828   0.04591   0.02716
           D3           0.09644  -0.18091  -0.10732   0.19840   0.22354
           D4          -0.47228   0.54125  -0.92328   0.38597   0.26550
                          D1        D2        D3        D4
           D1          -0.03931
           D2           0.03926  -0.03921
           D3          -0.06777   0.06802   0.59396
           D4           0.24268  -0.24221   0.61672  -0.96522
 ITU=  0  1  1  1  1  1  1  0  1  0  1  1 -1 -1  1  1  1  0  1 -1
     Eigenvalues ---   -7.35638   0.00000   0.02868   0.05128   0.07180
     Eigenvalues ---    0.09114   0.12073   0.13079   0.19037   0.28842
     Eigenvalues ---    0.33207   0.37950   0.40103   0.92216   5.47652
 Eigenvalue     2 is   4.62D-08 Eigenvector:
                          D2        D1        A2        A6        A3
   1                   -0.70762  -0.70659  -0.00055   0.00038   0.00035
                          A4        D3        A5        A1        R2
   1                   -0.00032   0.00020  -0.00018  -0.00015   0.00012
 Cut down GDIIS permanently because of the ratio check. E10
 DIIS coeff's:      1.20477     -0.46343     -0.01337      0.29675     -0.01287
 DIIS coeff's:     -0.03028      0.03792     -0.01899     -0.01602      0.21929
 DIIS coeff's:     -0.07800     -0.12999      0.00422
 Cosine:  0.042 >  0.000
 Length: 47.174
 GDIIS step was calculated using 13 of the last 14 vectors.
 Iteration  1 RMS(Cart)=  0.00055253 RMS(Int)=  0.02001639
 Iteration  2 RMS(Cart)=  0.00025384 RMS(Int)=  0.00002183
 Iteration  3 RMS(Cart)=  0.00001456 RMS(Int)=  0.00000840
 Iteration  4 RMS(Cart)=  0.00000000 RMS(Int)=  0.00000840
 Variable       Old X    -DE/DX   Delta X   Delta X   Delta X     New X
                                 (Linear)    (Quad)   (Total)
    R1        2.26125   0.00016   0.00014   0.00000   0.00014   2.26139
    R2        2.00668   0.00006   0.00015  -0.00000   0.00015   2.00682
    R3        2.75375   0.00013   0.00042  -0.00000   0.00042   2.75417
    R4        3.97569   0.00003   0.00039  -0.00000   0.00038   3.97607
    R5        2.05827  -0.00001  -0.00008  -0.00000  -0.00008   2.05819
    R6        2.05777   0.00010   0.00041   0.00000   0.00042   2.05819
    R7        2.05835  -0.00006  -0.00016  -0.00000  -0.00016   2.05819
    A1        3.13625   0.00031  -0.00065   0.00000  -0.00065   3.13559
    A2        3.14021   0.00002  -0.00003   0.00000  -0.00003   3.14018
    A3        2.63653  -0.00006  -0.00012  -0.00000  -0.00009   2.63644
    A4        1.92993   0.00008   0.00048  -0.00000   0.00049   1.93042
    A5        1.93038   0.00000  -0.00018  -0.00000  -0.00018   1.93019
    A6        1.89028   0.00006   0.00035   0.00001   0.00036   1.89064
    A7        1.89035   0.00001   0.00019   0.00000   0.00019   1.89055
    A8        1.89122  -0.00003  -0.00062   0.00000  -0.00063   1.89059
    D1       -2.46161   0.00002  -0.23709   0.00009  -0.23701  -2.69862
    D2       -0.35931  -0.00002  -0.23907   0.00009  -0.23897  -0.59827
    D3       -2.08483  -0.00002  -0.00129   0.00000  -0.00129  -2.08612
    D4        0.00911   0.00004  -0.00084  -0.00000  -0.00085   0.00826
         Item               Value     Threshold  Converged?
 Maximum Force            0.000307     0.000002     NO 
 RMS     Force            0.000096     0.000001     NO 
 Maximum Displacement     0.001247     0.000006     NO 
 RMS     Displacement     0.000488     0.000004     NO 
 Predicted change in Energy=-3.954246D-07
 GradGradGradGradGradGradGradGradGradGradGradGradGradGradGradGradGradGrad

                          Input orientation:                          
 ---------------------------------------------------------------------
 Center     Atomic      Atomic             Coordinates (Angstroms)
 Number     Number       Type             X           Y           Z
 ---------------------------------------------------------------------
      1          6           0       -3.073258   -1.182041    0.606868
      2          6           0       -2.033828   -0.677160    0.917861
      3          6           0       -0.767301   -0.064033    1.297497
      4          1           0       -0.935750    0.788575    1.953946
      5          1           0       -0.230399    0.283385    0.415862
      6          1           0       -0.136803   -0.780664    1.822048
      7          1           0       -3.996231   -1.625941    0.326079
 ---------------------------------------------------------------------
                    Distance matrix (angstroms):
                    1          2          3          4          5
     1  C    0.000000
     2  C    1.196676   0.000000
     3  C    2.654119   1.457444   0.000000
     4  H    3.204198   2.104193   1.089147   0.000000
     5  H    3.204029   2.104046   1.089148   1.765911   0.000000
     6  H    3.203207   2.104037   1.089147   1.765850   1.765877
     7  H    1.061965   2.258632   3.716074   4.224498   4.223160
                    6          7
     6  H    0.000000
     7  H    4.224643   0.000000
 Stoichiometry    C3H4
 Framework group  C1[X(C3H4)]
 Deg. of freedom    15
 Full point group                 C1      NOp   1
 Largest Abelian subgroup         C1      NOp   1
 Largest concise Abelian subgroup C1      NOp   1
                         Standard orientation:                         
 ---------------------------------------------------------------------
 Center     Atomic      Atomic             Coordinates (Angstroms)
 Number     Number       Type             X           Y           Z
 ---------------------------------------------------------------------
      1          6           0        1.416118    0.000721   -0.000820
      2          6           0        0.219443    0.000031    0.000438
      3          6           0       -1.238001   -0.000131    0.000021
      4          1           0       -1.621585    0.672666    0.765819
      5          1           0       -1.621022   -0.999993    0.199559
      6          1           0       -1.620825    0.326741   -0.965816
      7          1           0        2.478071   -0.003136    0.002603
 ---------------------------------------------------------------------
 Rotational constants (GHZ):         160.8072890           8.6241253           8.6241074
 Standard basis: CC-pVTZ (5D, 7F)
 There are   165 symmetry adapted cartesian basis functions of A   symmetry.
 There are   146 symmetry adapted basis functions of A   symmetry.
   146 basis functions,   224 primitive gaussians,   165 cartesian basis functions
    11 alpha electrons       11 beta electrons
       nuclear repulsion energy        58.9385676178 Hartrees.
 NAtoms=    7 NActive=    7 NUniq=    7 SFac= 1.00D+00 NAtFMM=   60 NAOKFM=F Big=F
 Integral buffers will be    131072 words long.
 Raffenetti 2 integral format.
 Two-electron integral symmetry is turned on.
 One-electron integrals computed using PRISM.
 NBasis=   146 RedAO= T EigKep=  4.71D-05  NBF=   146
 NBsUse=   146 1.00D-06 EigRej= -1.00D+00 NBFU=   146
 Initial guess from the checkpoint file:  "/scratch/dinius.ab/QMscratch/Gau-41866.chk"
 B after Tr=    -0.000000   -0.000000   -0.000000
         Rot=    0.887513    0.460783    0.000012   -0.000003 Ang=  54.88 deg.
 Keep R1 ints in memory in canonical form, NReq=77430779.
 Requested convergence on RMS density matrix=1.00D-08 within 900 cycles.
 Requested convergence on MAX density matrix=1.00D-06.
 Requested convergence on             energy=1.00D-06.
 No special actions if energy rises.
 SCF Done:  E(RM062X) =  -116.641916758     A.U. after    7 cycles
            NFock=  7  Conv=0.28D-08     -V/T= 2.0060
