 Entering Gaussian System, Link 0=g16
 Input=nateO=C=O.com
 Output=nateO=C=O.log
 Initial command:
 /shared/centos7/gaussian/g16/l1.exe "/scratch/dinius.ab/QMscratch/Gau-7435.inp" -scrdir="/scratch/dinius.ab/QMscratch/"
 Default is to use a total of  20 processors:
                               20 via shared-memory
                                1 via Linda
 Entering Link 1 = /shared/centos7/gaussian/g16/l1.exe PID=      7436.
  
 Copyright (c) 1988,1990,1992,1993,1995,1998,2003,2009,2016,
            Gaussian, Inc.  All Rights Reserved.
  
 This is part of the Gaussian(R) 16 program.  It is based on
 the Gaussian(R) 09 system (copyright 2009, Gaussian, Inc.),
 the Gaussian(R) 03 system (copyright 2003, Gaussian, Inc.),
 the Gaussian(R) 98 system (copyright 1998, Gaussian, Inc.),
 the Gaussian(R) 94 system (copyright 1995, Gaussian, Inc.),
 the Gaussian 92(TM) system (copyright 1992, Gaussian, Inc.),
 the Gaussian 90(TM) system (copyright 1990, Gaussian, Inc.),
 the Gaussian 88(TM) system (copyright 1988, Gaussian, Inc.),
 the Gaussian 86(TM) system (copyright 1986, Carnegie Mellon
 University), and the Gaussian 82(TM) system (copyright 1983,
 Carnegie Mellon University). Gaussian is a federally registered
 trademark of Gaussian, Inc.
  
 This software contains proprietary and confidential information,
 including trade secrets, belonging to Gaussian, Inc.
  
 This software is provided under written license and may be
 used, copied, transmitted, or stored only in accord with that
 written license.
  
 The following legend is applicable only to US Government
 contracts under FAR:
  
                    RESTRICTED RIGHTS LEGEND
  
 Use, reproduction and disclosure by the US Government is
 subject to restrictions as set forth in subparagraphs (a)
 and (c) of the Commercial Computer Software - Restricted
 Rights clause in FAR 52.227-19.
  
 Gaussian, Inc.
 340 Quinnipiac St., Bldg. 40, Wallingford CT 06492
  
  
 ---------------------------------------------------------------
 Warning -- This program may not be used in any manner that
 competes with the business of Gaussian, Inc. or will provide
 assistance to any competitor of Gaussian, Inc.  The licensee
 of this program is prohibited from giving any competitor of
 Gaussian, Inc. access to this program.  By using this program,
 the user acknowledges that Gaussian, Inc. is engaged in the
 business of creating and licensing software in the field of
 computational chemistry and represents and warrants to the
 licensee that it is not a competitor of Gaussian, Inc. and that
 it will not use this program in any manner prohibited above.
 ---------------------------------------------------------------
  

 Cite this work as:
 Gaussian 16, Revision A.03,
 M. J. Frisch, G. W. Trucks, H. B. Schlegel, G. E. Scuseria, 
 M. A. Robb, J. R. Cheeseman, G. Scalmani, V. Barone, 
 G. A. Petersson, H. Nakatsuji, X. Li, M. Caricato, A. V. Marenich, 
 J. Bloino, B. G. Janesko, R. Gomperts, B. Mennucci, H. P. Hratchian, 
 J. V. Ortiz, A. F. Izmaylov, J. L. Sonnenberg, D. Williams-Young, 
 F. Ding, F. Lipparini, F. Egidi, J. Goings, B. Peng, A. Petrone, 
 T. Henderson, D. Ranasinghe, V. G. Zakrzewski, J. Gao, N. Rega, 
 G. Zheng, W. Liang, M. Hada, M. Ehara, K. Toyota, R. Fukuda, 
 J. Hasegawa, M. Ishida, T. Nakajima, Y. Honda, O. Kitao, H. Nakai, 
 T. Vreven, K. Throssell, J. A. Montgomery, Jr., J. E. Peralta, 
 F. Ogliaro, M. J. Bearpark, J. J. Heyd, E. N. Brothers, K. N. Kudin, 
 V. N. Staroverov, T. A. Keith, R. Kobayashi, J. Normand, 
 K. Raghavachari, A. P. Rendell, J. C. Burant, S. S. Iyengar, 
 J. Tomasi, M. Cossi, J. M. Millam, M. Klene, C. Adamo, R. Cammi, 
 J. W. Ochterski, R. L. Martin, K. Morokuma, O. Farkas, 
 J. B. Foresman, and D. J. Fox, Gaussian, Inc., Wallingford CT, 2016.
 
 ******************************************
 Gaussian 16:  EM64L-G16RevA.03 25-Dec-2016
                 2-Apr-2019 
 ******************************************
 ----------------------------------------------------------------------
 #m062x/cc-pVTZ Opt=(calcfc,verytight,gdiis,maxcycles=900) freq IOP(2/1
 6=3) scf=(maxcycle=900)
 ----------------------------------------------------------------------

 Warning!  Use of Opt=GDIIS is deprecated since it is seldom a good choice.

 1/6=900,7=1,10=4,18=20,19=11,26=3,38=1/1,3;
 2/9=110,12=2,16=3,17=6,18=5,40=1/2;
 3/5=16,6=1,11=2,25=1,30=1,71=2,74=-55,140=1/1,2,3;
 4//1;
 5/5=2,7=900,38=5/2;
 8/6=4,10=90,11=11/1;
 11/6=1,8=1,9=11,15=111,16=1/1,2,10;
 10/6=1,13=1/2;
 6/7=2,8=2,9=2,10=2,28=1/1;
 7/10=1,18=20,25=1/1,2,3,16;
 1/6=900,7=1,10=4,18=20,19=11,26=3/3(2);
 2/9=110,16=3/2;
 99//99;
 2/9=110,16=3/2;
 3/5=16,6=1,11=2,25=1,30=1,71=1,74=-55/1,2,3;
 4/5=5,16=3,69=1/1;
 5/5=2,7=900,38=5/2;
 7//1,2,3,16;
 1/6=900,7=1,18=20,19=11,26=3/3(-5);
 2/9=110,16=3/2;
 6/7=2,8=2,9=2,10=2,19=2,28=1/1;
 99/9=1/99;
 -----
 Title
 -----
 Symbolic Z-matrix:
 Charge =  0 Multiplicity = 1
 O                    -4.84844   0.33639   0.02468 
 C                    -4.00267   1.13662   0.65378 
 O                    -2.93801   1.51265  -0.03657 
 

 GradGradGradGradGradGradGradGradGradGradGradGradGradGradGradGradGradGrad
 Berny optimization.
 Initialization pass.
                           ----------------------------
                           !    Initial Parameters    !
                           ! (Angstroms and Degrees)  !
 --------------------------                            --------------------------
 ! Name  Definition              Value          Derivative Info.                !
 --------------------------------------------------------------------------------
 ! R1    R(1,2)                  1.3234         calculate D2E/DX2 analytically  !
 ! R2    R(2,3)                  1.3234         calculate D2E/DX2 analytically  !
 ! A1    A(1,2,3)              115.9736         calculate D2E/DX2 analytically  !
 --------------------------------------------------------------------------------
 Trust Radius=3.00D-01 FncErr=1.00D-07 GrdErr=1.00D-06 EigMax=2.50D+02 EigMin=1.00D-04
 Number of steps in this run=    100 maximum allowed number of steps=    100.
 GradGradGradGradGradGradGradGradGradGradGradGradGradGradGradGradGradGrad

                          Input orientation:                          
 ---------------------------------------------------------------------
 Center     Atomic      Atomic             Coordinates (Angstroms)
 Number     Number       Type             X           Y           Z
 ---------------------------------------------------------------------
      1          8           0       -4.848440    0.336390    0.024680
      2          6           0       -4.002670    1.136620    0.653780
      3          8           0       -2.938010    1.512650   -0.036570
 ---------------------------------------------------------------------
                    Distance matrix (angstroms):
                    1          2          3
     1  O    0.000000
     2  C    1.323428   0.000000
     3  O    2.244344   1.323436   0.000000
 Stoichiometry    CO2
 Framework group  CS[SG(CO2)]
 Deg. of freedom     3
 Full point group                 CS      NOp   2
 Largest Abelian subgroup         CS      NOp   2
 Largest concise Abelian subgroup C1      NOp   1
                         Standard orientation:                         
 ---------------------------------------------------------------------
 Center     Atomic      Atomic             Coordinates (Angstroms)
 Number     Number       Type             X           Y           Z
 ---------------------------------------------------------------------
      1          8           0        1.122172   -0.191330    0.000000
      2          6           0       -0.000000    0.510233   -0.000000
      3          8           0       -1.122172   -0.191345   -0.000000
 ---------------------------------------------------------------------
 Rotational constants (GHZ):         117.6611812          12.5454503          11.3366922
 Standard basis: CC-pVTZ (5D, 7F)
 There are    72 symmetry adapted cartesian basis functions of A'  symmetry.
 There are    33 symmetry adapted cartesian basis functions of A"  symmetry.
 There are    60 symmetry adapted basis functions of A'  symmetry.
 There are    30 symmetry adapted basis functions of A"  symmetry.
    90 basis functions,   156 primitive gaussians,   105 cartesian basis functions
    11 alpha electrons       11 beta electrons
       nuclear repulsion energy        53.4758951029 Hartrees.
 NAtoms=    3 NActive=    3 NUniq=    3 SFac= 1.00D+00 NAtFMM=   60 NAOKFM=F Big=F
 Integral buffers will be    131072 words long.
 Raffenetti 2 integral format.
 Two-electron integral symmetry is turned on.
 One-electron integrals computed using PRISM.
 NBasis=    90 RedAO= T EigKep=  4.50D-03  NBF=    60    30
 NBsUse=    90 1.00D-06 EigRej= -1.00D+00 NBFU=    60    30
 ExpMin= 1.21D-01 ExpMax= 1.53D+04 ExpMxC= 5.22D+02 IAcc=3 IRadAn=         5 AccDes= 0.00D+00
 Harris functional with IExCor= 1009 and IRadAn=       5 diagonalized for initial guess.
 HarFok:  IExCor= 1009 AccDes= 0.00D+00 IRadAn=         5 IDoV= 1 UseB2=F ITyADJ=14
 ICtDFT=  3500011 ScaDFX=  1.000000  1.000000  1.000000  1.000000
 FoFCou: FMM=F IPFlag=           0 FMFlag=      100000 FMFlg1=           0
         NFxFlg=           0 DoJE=T BraDBF=F KetDBF=T FulRan=T
         wScrn=  0.000000 ICntrl=       500 IOpCl=  0 I1Cent=   200000004 NGrid=           0
         NMat0=    1 NMatS0=      1 NMatT0=    0 NMatD0=    1 NMtDS0=    0 NMtDT0=    0
 Petite list used in FoFCou.
 Initial guess orbital symmetries:
       Occupied  (A') (A') (A') (A') (A') (A') (A') (A") (A') (A")
                 (A')
       Virtual   (A') (A") (A') (A') (A") (A') (A') (A') (A') (A')
                 (A') (A") (A") (A') (A") (A') (A") (A') (A') (A')
                 (A') (A") (A") (A') (A') (A') (A") (A") (A') (A')
                 (A') (A") (A') (A') (A") (A') (A") (A") (A') (A')
                 (A") (A") (A') (A') (A') (A') (A') (A") (A") (A')
                 (A') (A') (A") (A') (A") (A') (A") (A') (A') (A")
                 (A') (A") (A') (A") (A') (A') (A") (A') (A") (A')
                 (A") (A') (A') (A") (A') (A') (A') (A') (A')
 The electronic state of the initial guess is 1-A'.
 Keep R1 ints in memory in symmetry-blocked form, NReq=26998074.
 Requested convergence on RMS density matrix=1.00D-08 within 900 cycles.
 Requested convergence on MAX density matrix=1.00D-06.
 Requested convergence on             energy=1.00D-06.
 No special actions if energy rises.
 Integral accuracy reduced to 1.0D-05 until final iterations.
 Initial convergence to 1.0D-05 achieved.  Increase integral accuracy.
 SCF Done:  E(RM062X) =  -188.415227850     A.U. after   13 cycles
            NFock= 13  Conv=0.75D-08     -V/T= 2.0087
 DoSCS=F DFT=T ScalE2(SS,OS)=  1.000000  1.000000
 Range of M.O.s used for correlation:     1    90
 NBasis=    90 NAE=    11 NBE=    11 NFC=     0 NFV=     0
 NROrb=     90 NOA=    11 NOB=    11 NVA=    79 NVB=    79
 Symmetrizing basis deriv contribution to polar:
 IMax=3 JMax=2 DiffMx= 0.00D+00
 G2DrvN: will do     4 centers at a time, making    1 passes.
 Calling FoFCou, ICntrl=  3107 FMM=F I1Cent=   0 AccDes= 0.00D+00.
 End of G2Drv F.D. properties file   721 does not exist.
 End of G2Drv F.D. properties file   722 does not exist.
 End of G2Drv F.D. properties file   788 does not exist.
          IDoAtm=111
          Differentiating once with respect to nuclear coordinates.
 Keep R1 ints in memory in symmetry-blocked form, NReq=26930908.
          There are    12 degrees of freedom in the 1st order CPHF.  IDoFFX=6 NUNeed=     0.
      6 vectors produced by pass  0 Test12= 7.24D-15 8.33D-09 XBig12= 9.86D-02 2.06D-01.
 AX will form     6 AO Fock derivatives at one time.
      6 vectors produced by pass  1 Test12= 7.24D-15 8.33D-09 XBig12= 1.96D-01 3.12D-01.
      6 vectors produced by pass  2 Test12= 7.24D-15 8.33D-09 XBig12= 1.70D-02 6.55D-02.
      6 vectors produced by pass  3 Test12= 7.24D-15 8.33D-09 XBig12= 4.62D-04 5.68D-03.
      6 vectors produced by pass  4 Test12= 7.24D-15 8.33D-09 XBig12= 9.99D-06 1.05D-03.
      6 vectors produced by pass  5 Test12= 7.24D-15 8.33D-09 XBig12= 3.03D-07 2.38D-04.
      6 vectors produced by pass  6 Test12= 7.24D-15 8.33D-09 XBig12= 3.88D-09 2.42D-05.
      6 vectors produced by pass  7 Test12= 7.24D-15 8.33D-09 XBig12= 3.99D-11 1.85D-06.
      4 vectors produced by pass  8 Test12= 7.24D-15 8.33D-09 XBig12= 2.33D-13 1.93D-07.
      2 vectors produced by pass  9 Test12= 7.24D-15 8.33D-09 XBig12= 1.41D-15 1.20D-08.
 InvSVY:  IOpt=1 It=  1 EMax= 2.44D-16
 Solved reduced A of dimension    54 with     6 vectors.
 End of Minotr F.D. properties file   721 does not exist.
 End of Minotr F.D. properties file   722 does not exist.
 End of Minotr F.D. properties file   788 does not exist.

 **********************************************************************

            Population analysis using the SCF density.

 **********************************************************************

 Orbital symmetries:
       Occupied  (A') (A') (A') (A') (A') (A') (A') (A') (A") (A")
                 (A')
       Virtual   (A') (A") (A') (A') (A') (A") (A') (A') (A') (A')
                 (A') (A") (A") (A') (A") (A') (A") (A') (A') (A')
                 (A') (A") (A") (A') (A') (A") (A') (A') (A") (A')
                 (A") (A') (A') (A') (A") (A') (A") (A") (A') (A')
                 (A") (A") (A') (A') (A') (A') (A') (A") (A") (A')
                 (A') (A') (A") (A') (A") (A') (A") (A') (A') (A")
                 (A') (A") (A') (A") (A') (A') (A") (A') (A") (A')
                 (A") (A') (A') (A") (A') (A') (A') (A') (A')
 The electronic state is 1-A'.
 Alpha  occ. eigenvalues --  -19.72688 -19.72684 -10.78885  -1.23496  -1.14131
 Alpha  occ. eigenvalues --   -0.68001  -0.57045  -0.55622  -0.55138  -0.42553
 Alpha  occ. eigenvalues --   -0.40469
 Alpha virt. eigenvalues --   -0.17027  -0.02388   0.20595   0.21192   0.29186
 Alpha virt. eigenvalues --    0.30297   0.39104   0.41803   0.55624   0.60917
 Alpha virt. eigenvalues --    0.64120   0.66208   0.67568   0.75972   0.76551
 Alpha virt. eigenvalues --    0.79741   0.80419   1.04008   1.09148   1.26151
 Alpha virt. eigenvalues --    1.31431   1.50974   1.53394   1.57749   1.61665
 Alpha virt. eigenvalues --    1.77817   1.80190   1.88355   1.91176   2.04314
 Alpha virt. eigenvalues --    2.11335   2.14029   2.29948   2.43037   2.71578
 Alpha virt. eigenvalues --    2.78668   2.88913   2.90081   2.92407   3.01870
 Alpha virt. eigenvalues --    3.10500   3.10514   3.12990   3.13031   3.24018
 Alpha virt. eigenvalues --    3.30740   3.88797   3.91678   3.92341   4.00096
 Alpha virt. eigenvalues --    4.11897   4.86877   5.10936   5.11136   5.11261
 Alpha virt. eigenvalues --    5.11680   5.14364   5.23848   5.32740   5.41308
 Alpha virt. eigenvalues --    5.48866   5.74125   5.76381   5.81931   5.84318
 Alpha virt. eigenvalues --    6.11927   6.21108   6.25087   6.26679   6.30701
 Alpha virt. eigenvalues --    6.65983   6.67235   6.68392   6.69149   6.83600
 Alpha virt. eigenvalues --    6.85003   7.67626   9.64634  10.40902
          Condensed to atoms (all electrons):
               1          2          3
     1  O    7.761214   0.580260  -0.124330
     2  C    0.580260   4.405192   0.580254
     3  O   -0.124330   0.580254   7.761227
 Mulliken charges:
               1
     1  O   -0.217144
     2  C    0.434294
     3  O   -0.217150
 Sum of Mulliken charges =  -0.00000
 Mulliken charges with hydrogens summed into heavy atoms:
               1
     1  O   -0.217144
     2  C    0.434294
     3  O   -0.217150
 APT charges:
               1
     1  O   -0.095949
     2  C    0.191907
     3  O   -0.095958
 Sum of APT charges =  -0.00000
 APT charges with hydrogens summed into heavy atoms:
               1
     1  O   -0.095949
     2  C    0.191907
     3  O   -0.095958
 Electronic spatial extent (au):  <R**2>=            116.1490
 Charge=             -0.0000 electrons
 Dipole moment (field-independent basis, Debye):
    X=              0.0000    Y=              1.4970    Z=             -0.0000  Tot=              1.4970
 Quadrupole moment (field-independent basis, Debye-Ang):
   XX=            -19.6741   YY=            -13.9072   ZZ=            -15.5503
   XY=             -0.0000   XZ=             -0.0000   YZ=             -0.0000
 Traceless Quadrupole moment (field-independent basis, Debye-Ang):
   XX=             -3.2969   YY=              2.4700   ZZ=              0.8269
   XY=             -0.0000   XZ=             -0.0000   YZ=             -0.0000
 Octapole moment (field-independent basis, Debye-Ang**2):
  XXX=              0.0001  YYY=             -0.9390  ZZZ=              0.0000  XYY=              0.0000
  XXY=             -1.3777  XXZ=              0.0000  XZZ=              0.0000  YZZ=             -0.3234
  YYZ=              0.0000  XYZ=             -0.0000
 Hexadecapole moment (field-independent basis, Debye-Ang**3):
 XXXX=           -101.5425 YYYY=            -20.1560 ZZZZ=            -12.6421 XXXY=             -0.0003
 XXXZ=             -0.0000 YYYX=             -0.0003 YYYZ=              0.0000 ZZZX=             -0.0000
 ZZZY=              0.0000 XXYY=            -18.8909 XXZZ=            -18.5632 YYZZ=             -5.5180
 XXYZ=              0.0000 YYXZ=             -0.0000 ZZXY=             -0.0001
 N-N= 5.347589510287D+01 E-N=-5.500752352291D+02  KE= 1.867836606957D+02
 Symmetry A'   KE= 1.782947153679D+02
 Symmetry A"   KE= 8.488945327732D+00
  Exact polarizability:   0.000   0.000   0.000   0.000   0.000   0.000
 Approx polarizability:  47.534   0.000  26.835   0.000  -0.000  12.972
 Calling FoFJK, ICntrl=    100147 FMM=F ISym2X=1 I1Cent= 0 IOpClX= 0 NMat=1 NMatS=1 NMatT=0.
 ***** Axes restored to original set *****
 -------------------------------------------------------------------
 Center     Atomic                   Forces (Hartrees/Bohr)
 Number     Number              X              Y              Z
 -------------------------------------------------------------------
      1        8           0.044610067    0.086798000    0.137876372
      2        6           0.046467383   -0.090052540   -0.280102833
      3        8          -0.091077450    0.003254539    0.142226461
 -------------------------------------------------------------------
 Cartesian Forces:  Max     0.280102833 RMS     0.127276680
 FormGI is forming the generalized inverse of G from B-inverse, IUseBI=4.

 GradGradGradGradGradGradGradGradGradGradGradGradGradGradGradGradGradGrad
 Berny optimization.
 Internal  Forces:  Max     0.210163963 RMS     0.170404610
 Search for a local minimum.
 Step number   1 out of a maximum of  100
 All quantities printed in internal units (Hartrees-Bohrs-Radians)
 Swapping is turned off.
 Second derivative matrix not updated -- analytic derivatives used.
 The second derivative matrix:
                          R1        R2        A1
           R1           0.24182
           R2           0.17360   0.24179
           A1           0.16951   0.16952   0.41166
 ITU=  0
     Eigenvalues ---    0.06821   0.17379   0.65327
 Quadratic step=1.698D+00 exceeds max=3.000D-01 adjusted using Lamda=-8.100D-01.
 Angle between NR and scaled steps=   0.07 degrees.
 Angle between quadratic step and forces=   0.06 degrees.
 Linear search not attempted -- option 19 set.
 Iteration  1 RMS(Cart)=  0.13731813 RMS(Int)=  0.01086256
 Iteration  2 RMS(Cart)=  0.00974134 RMS(Int)=  0.00000500
 Iteration  3 RMS(Cart)=  0.00000585 RMS(Int)=  0.00000000
 Iteration  4 RMS(Cart)=  0.00000000 RMS(Int)=  0.00000000
 ClnCor:  largest displacement from symmetrization is 1.01D-15 for atom     3.
 Variable       Old X    -DE/DX   Delta X   Delta X   Delta X     New X
                                 (Linear)    (Quad)   (Total)
    R1        2.50092  -0.14653   0.00000  -0.14910  -0.14910   2.35182
    R2        2.50093  -0.14653   0.00000  -0.14910  -0.14910   2.35183
    A1        2.02412   0.21016   0.00000   0.21341   0.21341   2.23753
         Item               Value     Threshold  Converged?
 Maximum Force            0.210164     0.000002     NO 
 RMS     Force            0.170405     0.000001     NO 
 Maximum Displacement     0.187141     0.000006     NO 
 RMS     Displacement     0.140781     0.000004     NO 
 Predicted change in Energy=-8.072676D-02
 GradGradGradGradGradGradGradGradGradGradGradGradGradGradGradGradGradGrad

                          Input orientation:                          
 ---------------------------------------------------------------------
 Center     Atomic      Atomic             Coordinates (Angstroms)
 Number     Number       Type             X           Y           Z
 ---------------------------------------------------------------------
      1          8           0       -4.854407    0.353692    0.074123
      2          6           0       -3.986241    1.104782    0.554749
      3          8           0       -2.948472    1.527185    0.013018
 ---------------------------------------------------------------------
                    Distance matrix (angstroms):
                    1          2          3
     1  O    0.000000
     2  C    1.244528   0.000000
     3  O    2.239065   1.244533   0.000000
 Stoichiometry    CO2
 Framework group  CS[SG(CO2)]
 Deg. of freedom     3
 Full point group                 CS      NOp   2
 Largest Abelian subgroup         CS      NOp   2
 Largest concise Abelian subgroup C1      NOp   1
                         Standard orientation:                         
 ---------------------------------------------------------------------
 Center     Atomic      Atomic             Coordinates (Angstroms)
 Number     Number       Type             X           Y           Z
 ---------------------------------------------------------------------
      1          8           0        1.119532   -0.148250   -0.000000
      2          6           0       -0.000000    0.395348    0.000000
      3          8           0       -1.119532   -0.148261    0.000000
 ---------------------------------------------------------------------
 Rotational constants (GHZ):         195.9804821          12.6046856          11.8429914
 Standard basis: CC-pVTZ (5D, 7F)
 There are    72 symmetry adapted cartesian basis functions of A'  symmetry.
 There are    33 symmetry adapted cartesian basis functions of A"  symmetry.
 There are    60 symmetry adapted basis functions of A'  symmetry.
 There are    30 symmetry adapted basis functions of A"  symmetry.
    90 basis functions,   156 primitive gaussians,   105 cartesian basis functions
    11 alpha electrons       11 beta electrons
       nuclear repulsion energy        55.9450777805 Hartrees.
 NAtoms=    3 NActive=    3 NUniq=    3 SFac= 1.00D+00 NAtFMM=   60 NAOKFM=F Big=F
 Integral buffers will be    131072 words long.
 Raffenetti 2 integral format.
 Two-electron integral symmetry is turned on.
 One-electron integrals computed using PRISM.
 NBasis=    90 RedAO= T EigKep=  3.90D-03  NBF=    60    30
 NBsUse=    90 1.00D-06 EigRej= -1.00D+00 NBFU=    60    30
 Initial guess from the checkpoint file:  "/scratch/dinius.ab/QMscratch/Gau-7436.chk"
 B after Tr=     0.000000    0.000000   -0.000000
         Rot=    1.000000   -0.000000   -0.000000    0.000001 Ang=   0.00 deg.
 Initial guess orbital symmetries:
       Occupied  (A') (A') (A') (A') (A') (A') (A') (A') (A") (A")
                 (A')
       Virtual   (A') (A") (A') (A') (A') (A") (A') (A') (A') (A')
                 (A') (A") (A") (A') (A") (A') (A") (A') (A') (A')
                 (A') (A") (A") (A') (A') (A") (A') (A') (A") (A')
                 (A") (A') (A') (A') (A") (A') (A") (A") (A') (A')
                 (A") (A") (A') (A') (A') (A') (A') (A") (A") (A')
                 (A') (A') (A") (A') (A") (A') (A") (A') (A') (A")
                 (A') (A") (A') (A") (A') (A') (A") (A') (A") (A')
                 (A") (A') (A') (A") (A') (A') (A') (A') (A')
 ExpMin= 1.21D-01 ExpMax= 1.53D+04 ExpMxC= 5.22D+02 IAcc=2 IRadAn=         4 AccDes= 0.00D+00
 Harris functional with IExCor= 1009 and IRadAn=       4 diagonalized for initial guess.
 HarFok:  IExCor= 1009 AccDes= 0.00D+00 IRadAn=         4 IDoV= 1 UseB2=F ITyADJ=14
 ICtDFT=  3500011 ScaDFX=  1.000000  1.000000  1.000000  1.000000
 FoFCou: FMM=F IPFlag=           0 FMFlag=      100000 FMFlg1=           0
         NFxFlg=           0 DoJE=T BraDBF=F KetDBF=T FulRan=T
         wScrn=  0.000000 ICntrl=       500 IOpCl=  0 I1Cent=   200000004 NGrid=           0
         NMat0=    1 NMatS0=      1 NMatT0=    0 NMatD0=    1 NMtDS0=    0 NMtDT0=    0
 Petite list used in FoFCou.
 Keep R1 ints in memory in symmetry-blocked form, NReq=26998074.
 Requested convergence on RMS density matrix=1.00D-08 within 900 cycles.
 Requested convergence on MAX density matrix=1.00D-06.
 Requested convergence on             energy=1.00D-06.
 No special actions if energy rises.
 Integral accuracy reduced to 1.0D-05 until final iterations.
 Initial convergence to 1.0D-05 achieved.  Increase integral accuracy.
 SCF Done:  E(RM062X) =  -188.494102138     A.U. after   13 cycles
            NFock= 13  Conv=0.22D-08     -V/T= 2.0072
 Calling FoFJK, ICntrl=      2127 FMM=F ISym2X=1 I1Cent= 0 IOpClX= 0 NMat=1 NMatS=1 NMatT=0.
 ***** Axes restored to original set *****
 -------------------------------------------------------------------
 Center     Atomic                   Forces (Hartrees/Bohr)
 Number     Number              X              Y              Z
 -------------------------------------------------------------------
      1        8           0.029180518    0.062059325    0.102591636
      2        6           0.034534898   -0.066922688   -0.208162691
      3        8          -0.063715417    0.004863363    0.105571055
 -------------------------------------------------------------------
 Cartesian Forces:  Max     0.208162691 RMS     0.093961855

 GradGradGradGradGradGradGradGradGradGradGradGradGradGradGradGradGradGrad
 Berny optimization.
 Using GDIIS optimizer.
 FormGI is forming the generalized inverse of G from B-inverse, IUseBI=4.
 Internal  Forces:  Max     0.178108479 RMS     0.130010747
 Search for a local minimum.
 Step number   2 out of a maximum of  100
 All quantities printed in internal units (Hartrees-Bohrs-Radians)
 Swapping is turned off.
 Update second derivatives using D2CorX and points    1    2
 DE= -7.89D-02 DEPred=-8.07D-02 R= 9.77D-01
 TightC=F SS=  1.41D+00  RLast= 3.00D-01 DXNew= 5.0454D-01 9.0003D-01
 Trust test= 9.77D-01 RLast= 3.00D-01 DXMaxT set to 5.05D-01
 The second derivative matrix:
                          R1        R2        A1
           R1           0.31162
           R2           0.24340   0.31160
           A1           0.15768   0.15768   0.37054
 ITU=  1  0
     Eigenvalues ---    0.06821   0.22146   0.70409
 DIIS coeff's:      4.12168     -3.12168
 Cosine:  1.000 >  0.970
 Length:  1.000
 GDIIS step was calculated using  2 of the last  2 vectors.
 Maximum step size (   0.505) exceeded in Quadratic search.
    -- Step size scaled by   0.497
 Iteration  1 RMS(Cart)=  0.15436330 RMS(Int)=  0.11377713
 Iteration  2 RMS(Cart)=  0.10641665 RMS(Int)=  0.00850098
 Iteration  3 RMS(Cart)=  0.00843680 RMS(Int)=  0.00000211
 Iteration  4 RMS(Cart)=  0.00000192 RMS(Int)=  0.00000000
 Iteration  5 RMS(Cart)=  0.00000000 RMS(Int)=  0.00000000
 ClnCor:  largest displacement from symmetrization is 1.00D-15 for atom     3.
 Variable       Old X    -DE/DX   Delta X   Delta X   Delta X     New X
                                 (Linear)    (Quad)   (Total)
    R1        2.35182  -0.09743  -0.23144   0.02679  -0.20465   2.14717
    R2        2.35183  -0.09743  -0.23145   0.02672  -0.20473   2.14709
    A1        2.23753   0.17811   0.33127   0.08196   0.41323   2.65076
         Item               Value     Threshold  Converged?
 Maximum Force            0.178108     0.000002     NO 
 RMS     Force            0.130011     0.000001     NO 
 Maximum Displacement     0.316960     0.000006     NO 
 RMS     Displacement     0.239841     0.000004     NO 
 Predicted change in Energy=-8.527102D-02
 GradGradGradGradGradGradGradGradGradGradGradGradGradGradGradGradGradGrad

                          Input orientation:                          
 ---------------------------------------------------------------------
 Center     Atomic      Atomic             Coordinates (Angstroms)
 Number     Number       Type             X           Y           Z
 ---------------------------------------------------------------------
      1          8           0       -4.853544    0.389751    0.157511
      2          6           0       -3.958404    1.050865    0.387022
      3          8           0       -2.977172    1.545043    0.097358
 ---------------------------------------------------------------------
                    Distance matrix (angstroms):
                    1          2          3
     1  O    0.000000
     2  C    1.136232   0.000000
     3  O    2.204334   1.136192   0.000000
 Stoichiometry    CO2
 Framework group  CS[SG(CO2)]
 Deg. of freedom     3
 Full point group                 CS      NOp   2
 Largest Abelian subgroup         CS      NOp   2
 Largest concise Abelian subgroup C1      NOp   1
                         Standard orientation:                         
 ---------------------------------------------------------------------
 Center     Atomic      Atomic             Coordinates (Angstroms)
 Number     Number       Type             X           Y           Z
 ---------------------------------------------------------------------
      1          8           0        1.102167   -0.075369    0.000000
      2          6           0        0.000000    0.200766   -0.000000
      3          8           0       -1.102167   -0.075206   -0.000000
 ---------------------------------------------------------------------
 Rotational constants (GHZ):         759.9592183          13.0050079          12.7862005
 Standard basis: CC-pVTZ (5D, 7F)
 There are    72 symmetry adapted cartesian basis functions of A'  symmetry.
 There are    33 symmetry adapted cartesian basis functions of A"  symmetry.
 There are    60 symmetry adapted basis functions of A'  symmetry.
 There are    30 symmetry adapted basis functions of A"  symmetry.
    90 basis functions,   156 primitive gaussians,   105 cartesian basis functions
    11 alpha electrons       11 beta electrons
       nuclear repulsion energy        60.0748488149 Hartrees.
 NAtoms=    3 NActive=    3 NUniq=    3 SFac= 1.00D+00 NAtFMM=   60 NAOKFM=F Big=F
 Integral buffers will be    131072 words long.
 Raffenetti 2 integral format.
 Two-electron integral symmetry is turned on.
 One-electron integrals computed using PRISM.
 NBasis=    90 RedAO= T EigKep=  2.08D-03  NBF=    60    30
 NBsUse=    90 1.00D-06 EigRej= -1.00D+00 NBFU=    60    30
 Initial guess from the checkpoint file:  "/scratch/dinius.ab/QMscratch/Gau-7436.chk"
 B after Tr=    -0.000000   -0.000000    0.000000
         Rot=    1.000000    0.000000   -0.000000    0.000038 Ang=   0.00 deg.
 Initial guess orbital symmetries:
       Occupied  (A') (A') (A') (A') (A') (A') (A') (A') (A") (A")
                 (A')
       Virtual   (A') (A") (A') (A') (A') (A") (A') (A') (A') (A')
                 (A") (A') (A") (A') (A') (A") (A") (A') (A') (A')
                 (A') (A") (A") (A') (A') (A") (A') (A') (A") (A')
                 (A") (A') (A') (A') (A") (A') (A") (A') (A") (A')
                 (A") (A') (A') (A") (A') (A') (A') (A") (A") (A')
                 (A') (A') (A") (A') (A") (A') (A") (A') (A") (A')
                 (A') (A') (A") (A") (A') (A") (A') (A') (A") (A')
                 (A") (A") (A') (A') (A') (A') (A') (A') (A')
 ExpMin= 1.21D-01 ExpMax= 1.53D+04 ExpMxC= 5.22D+02 IAcc=2 IRadAn=         4 AccDes= 0.00D+00
 Harris functional with IExCor= 1009 and IRadAn=       4 diagonalized for initial guess.
 HarFok:  IExCor= 1009 AccDes= 0.00D+00 IRadAn=         4 IDoV= 1 UseB2=F ITyADJ=14
 ICtDFT=  3500011 ScaDFX=  1.000000  1.000000  1.000000  1.000000
 FoFCou: FMM=F IPFlag=           0 FMFlag=      100000 FMFlg1=           0
         NFxFlg=           0 DoJE=T BraDBF=F KetDBF=T FulRan=T
         wScrn=  0.000000 ICntrl=       500 IOpCl=  0 I1Cent=   200000004 NGrid=           0
         NMat0=    1 NMatS0=      1 NMatT0=    0 NMatD0=    1 NMtDS0=    0 NMtDT0=    0
 Petite list used in FoFCou.
 Keep R1 ints in memory in symmetry-blocked form, NReq=26998074.
 Requested convergence on RMS density matrix=1.00D-08 within 900 cycles.
 Requested convergence on MAX density matrix=1.00D-06.
 Requested convergence on             energy=1.00D-06.
 No special actions if energy rises.
 Integral accuracy reduced to 1.0D-05 until final iterations.
 Initial convergence to 1.0D-05 achieved.  Increase integral accuracy.
 SCF Done:  E(RM062X) =  -188.564956969     A.U. after   12 cycles
            NFock= 12  Conv=0.57D-08     -V/T= 2.0032
 Calling FoFJK, ICntrl=      2127 FMM=F ISym2X=1 I1Cent= 0 IOpClX= 0 NMat=1 NMatS=1 NMatT=0.
 ***** Axes restored to original set *****
 -------------------------------------------------------------------
 Center     Atomic                   Forces (Hartrees/Bohr)
 Number     Number              X              Y              Z
 -------------------------------------------------------------------
      1        8          -0.069019407   -0.029638589    0.032400201
      2        6           0.009995798   -0.019551827   -0.060677311
      3        8           0.059023609    0.049190415    0.028277110
 -------------------------------------------------------------------
 Cartesian Forces:  Max     0.069019407 RMS     0.044170002

 GradGradGradGradGradGradGradGradGradGradGradGradGradGradGradGradGradGrad
 Berny optimization.
 Using GDIIS optimizer.
 FormGI is forming the generalized inverse of G from B-inverse, IUseBI=4.
 Internal  Forces:  Max     0.106434011 RMS     0.081258289
 Search for a local minimum.
 Step number   3 out of a maximum of  100
 All quantities printed in internal units (Hartrees-Bohrs-Radians)
 Swapping is turned off.
 Update second derivatives using D2CorX and points    2    3
 DE= -7.09D-02 DEPred=-8.53D-02 R= 8.31D-01
 TightC=F SS=  1.41D+00  RLast= 5.05D-01 DXNew= 8.4853D-01 1.5136D+00
 Trust test= 8.31D-01 RLast= 5.05D-01 DXMaxT set to 8.49D-01
 The second derivative matrix:
                          R1        R2        A1
           R1           0.54464
           R2           0.47657   0.54491
           A1           0.11259   0.11253   0.28496
 ITU=  1  1  0
     Eigenvalues ---    0.06821   0.25202   1.05429
 Cut down GDIIS temporarily because of the coefficient check. E 2
 DIIS coeff's:      1.18015     -0.18015
 Cosine:  1.000 >  0.970
 Length:  1.000
 GDIIS step was calculated using  2 of the last  3 vectors.
 Iteration  1 RMS(Cart)=  0.11336508 RMS(Int)=  0.09143083
 Iteration  2 RMS(Cart)=  0.08180311 RMS(Int)=  0.00555634
 Iteration  3 RMS(Cart)=  0.00555963 RMS(Int)=  0.00000056
 Iteration  4 RMS(Cart)=  0.00000050 RMS(Int)=  0.00000000
 ClnCor:  largest displacement from symmetrization is 1.87D-15 for atom     1.
 Variable       Old X    -DE/DX   Delta X   Delta X   Delta X     New X
                                 (Linear)    (Quad)   (Total)
    R1        2.14717   0.06508  -0.03687   0.06088   0.02401   2.17118
    R2        2.14709   0.06516  -0.03688   0.06237   0.02548   2.17257
    A1        2.65076   0.10643   0.07444   0.27951   0.35395   3.00471
         Item               Value     Threshold  Converged?
 Maximum Force            0.106434     0.000002     NO 
 RMS     Force            0.081258     0.000001     NO 
 Maximum Displacement     0.233907     0.000006     NO 
 RMS     Displacement     0.188797     0.000004     NO 
 Predicted change in Energy=-2.044768D-02
 GradGradGradGradGradGradGradGradGradGradGradGradGradGradGradGradGradGrad

                          Input orientation:                          
 ---------------------------------------------------------------------
 Center     Atomic      Atomic             Coordinates (Angstroms)
 Number     Number       Type             X           Y           Z
 ---------------------------------------------------------------------
      1          8           0       -4.901544    0.386434    0.220652
      2          6           0       -3.938089    1.010933    0.263243
      3          8           0       -2.949487    1.588293    0.157995
 ---------------------------------------------------------------------
                    Distance matrix (angstroms):
                    1          2          3
     1  O    0.000000
     2  C    1.148938   0.000000
     3  O    2.293234   1.149677   0.000000
 Stoichiometry    CO2
 Framework group  CS[SG(CO2)]
 Deg. of freedom     3
 Full point group                 CS      NOp   2
 Largest Abelian subgroup         CS      NOp   2
 Largest concise Abelian subgroup C1      NOp   1
                         Standard orientation:                         
 ---------------------------------------------------------------------
 Center     Atomic      Atomic             Coordinates (Angstroms)
 Number     Number       Type             X           Y           Z
 ---------------------------------------------------------------------
      1          8           0        1.146604   -0.016037    0.000000
      2          6           0        0.000000    0.057163    0.000000
      3          8           0       -1.146604   -0.026835   -0.000000
 ---------------------------------------------------------------------
 Rotational constants (GHZ):        9374.6373359          12.0162386          12.0008561
 Standard basis: CC-pVTZ (5D, 7F)
 There are    72 symmetry adapted cartesian basis functions of A'  symmetry.
 There are    33 symmetry adapted cartesian basis functions of A"  symmetry.
 There are    60 symmetry adapted basis functions of A'  symmetry.
 There are    30 symmetry adapted basis functions of A"  symmetry.
    90 basis functions,   156 primitive gaussians,   105 cartesian basis functions
    11 alpha electrons       11 beta electrons
       nuclear repulsion energy        58.9697851601 Hartrees.
 NAtoms=    3 NActive=    3 NUniq=    3 SFac= 1.00D+00 NAtFMM=   60 NAOKFM=F Big=F
 Integral buffers will be    131072 words long.
 Raffenetti 2 integral format.
 Two-electron integral symmetry is turned on.
 One-electron integrals computed using PRISM.
 NBasis=    90 RedAO= T EigKep=  1.71D-03  NBF=    60    30
 NBsUse=    90 1.00D-06 EigRej= -1.00D+00 NBFU=    60    30
 Initial guess from the checkpoint file:  "/scratch/dinius.ab/QMscratch/Gau-7436.chk"
 B after Tr=     0.000000    0.000000    0.000000
         Rot=    0.999997   -0.000000   -0.000000   -0.002380 Ang=  -0.27 deg.
 Initial guess orbital symmetries:
       Occupied  (A') (A') (A') (A') (A') (A') (A") (A') (A') (A")
                 (A')
       Virtual   (A') (A") (A') (A') (A') (A") (A') (A') (A') (A")
                 (A') (A") (A') (A') (A") (A') (A") (A') (A') (A')
                 (A") (A') (A') (A") (A') (A') (A") (A') (A') (A")
                 (A") (A') (A') (A") (A') (A') (A") (A') (A") (A')
                 (A") (A') (A') (A") (A') (A') (A') (A") (A") (A')
                 (A') (A') (A") (A') (A") (A') (A") (A') (A") (A')
                 (A') (A') (A") (A') (A") (A') (A") (A') (A") (A')
                 (A') (A') (A") (A") (A') (A') (A') (A') (A')
 ExpMin= 1.21D-01 ExpMax= 1.53D+04 ExpMxC= 5.22D+02 IAcc=2 IRadAn=         4 AccDes= 0.00D+00
 Harris functional with IExCor= 1009 and IRadAn=       4 diagonalized for initial guess.
 HarFok:  IExCor= 1009 AccDes= 0.00D+00 IRadAn=         4 IDoV= 1 UseB2=F ITyADJ=14
 ICtDFT=  3500011 ScaDFX=  1.000000  1.000000  1.000000  1.000000
 FoFCou: FMM=F IPFlag=           0 FMFlag=      100000 FMFlg1=           0
         NFxFlg=           0 DoJE=T BraDBF=F KetDBF=T FulRan=T
         wScrn=  0.000000 ICntrl=       500 IOpCl=  0 I1Cent=   200000004 NGrid=           0
         NMat0=    1 NMatS0=      1 NMatT0=    0 NMatD0=    1 NMtDS0=    0 NMtDT0=    0
 Petite list used in FoFCou.
 Keep R1 ints in memory in symmetry-blocked form, NReq=26998074.
 Requested convergence on RMS density matrix=1.00D-08 within 900 cycles.
 Requested convergence on MAX density matrix=1.00D-06.
 Requested convergence on             energy=1.00D-06.
 No special actions if energy rises.
 Integral accuracy reduced to 1.0D-05 until final iterations.
 Initial convergence to 1.0D-05 achieved.  Increase integral accuracy.
 SCF Done:  E(RM062X) =  -188.589641483     A.U. after   12 cycles
            NFock= 12  Conv=0.91D-08     -V/T= 2.0043
 Calling FoFJK, ICntrl=      2127 FMM=F ISym2X=1 I1Cent= 0 IOpClX= 0 NMat=1 NMatS=1 NMatT=0.
 ***** Axes restored to original set *****
 -------------------------------------------------------------------
 Center     Atomic                   Forces (Hartrees/Bohr)
 Number     Number              X              Y              Z
 -------------------------------------------------------------------
      1        8          -0.015996359   -0.005458143    0.010822395
      2        6           0.004688043   -0.005931805   -0.020855043
      3        8           0.011308315    0.011389948    0.010032648
 -------------------------------------------------------------------
 Cartesian Forces:  Max     0.020855043 RMS     0.011799995

 GradGradGradGradGradGradGradGradGradGradGradGradGradGradGradGradGradGrad
 Berny optimization.
 Using GDIIS optimizer.
 FormGI is forming the generalized inverse of G from B-inverse, IUseBI=4.
 Internal  Forces:  Max     0.026365203 RMS     0.019676191
 Search for a local minimum.
 Step number   4 out of a maximum of  100
 All quantities printed in internal units (Hartrees-Bohrs-Radians)
 Swapping is turned off.
 Update second derivatives using D2CorX and points    3    4
 DE= -2.47D-02 DEPred=-2.04D-02 R= 1.21D+00
 TightC=F SS=  1.41D+00  RLast= 3.56D-01 DXNew= 1.4270D+00 1.0670D+00
 Trust test= 1.21D+00 RLast= 3.56D-01 DXMaxT set to 1.07D+00
 The second derivative matrix:
                          R1        R2        A1
           R1           0.51932
           R2           0.45357   0.52431
           A1           0.07082   0.07454   0.21604
 ITU=  1  1  1  0
     Eigenvalues ---    0.06820   0.20242   0.98906
 Cut down GDIIS permanently because of the redundancy. E 1
 DIIS coeff's:      1.32411     -0.31834     -0.00577
 Cosine:  1.000 >  0.840
 Length:  0.997
 GDIIS step was calculated using  3 of the last  4 vectors.
 Iteration  1 RMS(Cart)=  0.06130738 RMS(Int)=  0.00304653
 Iteration  2 RMS(Cart)=  0.00303733 RMS(Int)=  0.00000067
 Iteration  3 RMS(Cart)=  0.00000060 RMS(Int)=  0.00000000
 ClnCor:  largest displacement from symmetrization is 5.24D-16 for atom     3.
 Variable       Old X    -DE/DX   Delta X   Delta X   Delta X     New X
                                 (Linear)    (Quad)   (Total)
    R1        2.17118   0.01598   0.00660   0.01436   0.02096   2.19214
    R2        2.17257   0.01453   0.00708  -0.01426  -0.00718   2.16539
    A1        3.00471   0.02637   0.11711   0.00021   0.11732   3.12203
         Item               Value     Threshold  Converged?
 Maximum Force            0.026365     0.000002     NO 
 RMS     Force            0.019676     0.000001     NO 
 Maximum Displacement     0.080008     0.000006     NO 
 RMS     Displacement     0.061110     0.000004     NO 
 Predicted change in Energy=-1.666292D-03
 GradGradGradGradGradGradGradGradGradGradGradGradGradGradGradGradGradGrad

                          Input orientation:                          
 ---------------------------------------------------------------------
 Center     Atomic      Atomic             Coordinates (Angstroms)
 Number     Number       Type             X           Y           Z
 ---------------------------------------------------------------------
      1          8           0       -4.912478    0.388576    0.241839
      2          6           0       -3.926864    0.999966    0.220905
      3          8           0       -2.949778    1.597118    0.179146
 ---------------------------------------------------------------------
                    Distance matrix (angstroms):
                    1          2          3
     1  O    0.000000
     2  C    1.160031   0.000000
     3  O    2.305797   1.145876   0.000000
 Stoichiometry    CO2
 Framework group  CS[SG(CO2)]
 Deg. of freedom     3
 Full point group                 CS      NOp   2
 Largest Abelian subgroup         CS      NOp   2
 Largest concise Abelian subgroup C1      NOp   1
                         Standard orientation:                         
 ---------------------------------------------------------------------
 Center     Atomic      Atomic             Coordinates (Angstroms)
 Number     Number       Type             X           Y           Z
 ---------------------------------------------------------------------
      1          8           0        0.976515   -0.616487    0.000000
      2          6           0        0.000000    0.009683   -0.000000
      3          8           0       -0.976515    0.609225   -0.000000
 ---------------------------------------------------------------------
 Rotational constants (GHZ):      455379.7586540          11.8855340          11.8852238
 Standard basis: CC-pVTZ (5D, 7F)
 There are    72 symmetry adapted cartesian basis functions of A'  symmetry.
 There are    33 symmetry adapted cartesian basis functions of A"  symmetry.
 There are    60 symmetry adapted basis functions of A'  symmetry.
 There are    30 symmetry adapted basis functions of A"  symmetry.
    90 basis functions,   156 primitive gaussians,   105 cartesian basis functions
    11 alpha electrons       11 beta electrons
       nuclear repulsion energy        58.7511992783 Hartrees.
 NAtoms=    3 NActive=    3 NUniq=    3 SFac= 1.00D+00 NAtFMM=   60 NAOKFM=F Big=F
 Integral buffers will be    131072 words long.
 Raffenetti 2 integral format.
 Two-electron integral symmetry is turned on.
 One-electron integrals computed using PRISM.
 NBasis=    90 RedAO= T EigKep=  1.69D-03  NBF=    60    30
 NBsUse=    90 1.00D-06 EigRej= -1.00D+00 NBFU=    60    30
 Initial guess from the checkpoint file:  "/scratch/dinius.ab/QMscratch/Gau-7436.chk"
 B after Tr=     0.000000    0.000000    0.000000
         Rot=    0.960354    0.000000   -0.000000    0.278784 Ang=  32.38 deg.
 Initial guess orbital symmetries:
       Occupied  (A') (A') (A') (A') (A') (A') (A') (A") (A') (A")
                 (A')
       Virtual   (A') (A") (A') (A') (A') (A") (A') (A') (A") (A')
                 (A') (A") (A') (A') (A") (A') (A") (A') (A') (A')
                 (A") (A') (A') (A") (A') (A") (A') (A') (A") (A')
                 (A') (A") (A') (A') (A") (A') (A") (A') (A") (A')
                 (A") (A') (A') (A") (A') (A') (A') (A") (A") (A')
                 (A') (A') (A") (A') (A") (A') (A") (A') (A") (A')
                 (A') (A") (A') (A') (A") (A") (A') (A") (A') (A')
                 (A') (A') (A") (A') (A") (A') (A') (A') (A')
 ExpMin= 1.21D-01 ExpMax= 1.53D+04 ExpMxC= 5.22D+02 IAcc=2 IRadAn=         4 AccDes= 0.00D+00
 Harris functional with IExCor= 1009 and IRadAn=       4 diagonalized for initial guess.
 HarFok:  IExCor= 1009 AccDes= 0.00D+00 IRadAn=         4 IDoV= 1 UseB2=F ITyADJ=14
 ICtDFT=  3500011 ScaDFX=  1.000000  1.000000  1.000000  1.000000
 FoFCou: FMM=F IPFlag=           0 FMFlag=      100000 FMFlg1=           0
         NFxFlg=           0 DoJE=T BraDBF=F KetDBF=T FulRan=T
         wScrn=  0.000000 ICntrl=       500 IOpCl=  0 I1Cent=   200000004 NGrid=           0
         NMat0=    1 NMatS0=      1 NMatT0=    0 NMatD0=    1 NMtDS0=    0 NMtDT0=    0
 Petite list used in FoFCou.
 Keep R1 ints in memory in symmetry-blocked form, NReq=26998074.
 Requested convergence on RMS density matrix=1.00D-08 within 900 cycles.
 Requested convergence on MAX density matrix=1.00D-06.
 Requested convergence on             energy=1.00D-06.
 No special actions if energy rises.
 Integral accuracy reduced to 1.0D-05 until final iterations.
 Initial convergence to 1.0D-05 achieved.  Increase integral accuracy.
 SCF Done:  E(RM062X) =  -188.591355542     A.U. after   11 cycles
            NFock= 11  Conv=0.76D-08     -V/T= 2.0045
 Calling FoFJK, ICntrl=      2127 FMM=F ISym2X=1 I1Cent= 0 IOpClX= 0 NMat=1 NMatS=1 NMatT=0.
 ***** Axes restored to original set *****
 -------------------------------------------------------------------
 Center     Atomic                   Forces (Hartrees/Bohr)
 Number     Number              X              Y              Z
 -------------------------------------------------------------------
      1        8           0.006362559    0.004623062    0.001452734
      2        6          -0.022607539   -0.015230177   -0.002352436
      3        8           0.016244979    0.010607115    0.000899702
 -------------------------------------------------------------------
 Cartesian Forces:  Max     0.022607539 RMS     0.011497720

 GradGradGradGradGradGradGradGradGradGradGradGradGradGradGradGradGradGrad
 Berny optimization.
 Using GDIIS optimizer.
 FormGI is forming the generalized inverse of G from B-inverse, IUseBI=4.
 Internal  Forces:  Max     0.019346948 RMS     0.012235585
 Search for a local minimum.
 Step number   5 out of a maximum of  100
 All quantities printed in internal units (Hartrees-Bohrs-Radians)
 Swapping is turned off.
 Update second derivatives using D2CorX and points    3    4    5
 DE= -1.71D-03 DEPred=-1.67D-03 R= 1.03D+00
 TightC=F SS=  1.41D+00  RLast= 1.19D-01 DXNew= 1.7945D+00 3.5818D-01
 Trust test= 1.03D+00 RLast= 1.19D-01 DXMaxT set to 1.07D+00
 The second derivative matrix:
                          R1        R2        A1
           R1           0.62035
           R2           0.34876   0.46368
           A1           0.11334  -0.07503   0.16830
 ITU=  1  1  1  1
     Eigenvalues ---    0.04570   0.30473   0.90190
 Cosine:  0.593 <  0.840
 Cut down GDIIS temporarily because of the cosine check. E 7
 DIIS coeff's:      1.04133     -0.04133
 Cosine:  1.000 >  0.970
 Length:  1.000
 GDIIS step was calculated using  2 of the last  4 vectors.
 Iteration  1 RMS(Cart)=  0.05335861 RMS(Int)=  0.18295506
 Iteration  2 RMS(Cart)=  0.03840332 RMS(Int)=  0.14109479
 New curvilinear step failed, DQL= 2.18D-01 SP=-5.00D-01.
 ITry= 1 IFail=1 DXMaxC= 6.17D-02 DCOld= 1.00D+10 DXMaxT= 1.07D+00 DXLimC= 3.00D+00 Rises=F
 Iteration  1 RMS(Cart)=  0.04205881 RMS(Int)=  0.16469618
 Iteration  2 RMS(Cart)=  0.01505786 RMS(Int)=  0.14551652
 New curvilinear step failed, DQL= 2.17D-01 SP=-2.20D-01.
 ITry= 2 IFail=1 DXMaxC= 3.52D-02 DCOld= 1.00D+10 DXMaxT= 1.07D+00 DXLimC= 3.00D+00 Rises=F
 Iteration  1 RMS(Cart)=  0.03484703 RMS(Int)=  0.14539922
 New curvilinear step failed, DQL= 2.02D-01 SP=-5.28D-02.
 ITry= 3 IFail=1 DXMaxC= 3.60D-02 DCOld= 1.00D+10 DXMaxT= 1.07D+00 DXLimC= 3.00D+00 Rises=F
 Iteration  1 RMS(Cart)=  0.03240698 RMS(Int)=  0.12547010
 New curvilinear step failed, DQL= 1.73D-01 SP=-6.44D-02.
 ITry= 4 IFail=1 DXMaxC= 3.35D-02 DCOld= 1.00D+10 DXMaxT= 1.07D+00 DXLimC= 3.00D+00 Rises=F
 Iteration  1 RMS(Cart)=  0.03006518 RMS(Int)=  0.10557848
 New curvilinear step failed, DQL= 1.43D-01 SP=-8.09D-02.
 ITry= 5 IFail=1 DXMaxC= 3.12D-02 DCOld= 1.00D+10 DXMaxT= 1.07D+00 DXLimC= 3.00D+00 Rises=F
 Iteration  1 RMS(Cart)=  0.02788931 RMS(Int)=  0.08576057
 New curvilinear step failed, DQL= 1.13D-01 SP=-1.07D-01.
 ITry= 6 IFail=1 DXMaxC= 2.90D-02 DCOld= 1.00D+10 DXMaxT= 1.07D+00 DXLimC= 3.00D+00 Rises=F
 Iteration  1 RMS(Cart)=  0.02600882 RMS(Int)=  0.06611048
 New curvilinear step failed, DQL= 8.23D-02 SP=-1.54D-01.
 ITry= 7 IFail=1 DXMaxC= 2.72D-02 DCOld= 1.00D+10 DXMaxT= 1.07D+00 DXLimC= 3.00D+00 Rises=F
 Iteration  1 RMS(Cart)=  0.02469474 RMS(Int)=  0.04693427
 New curvilinear step failed, DQL= 5.04D-02 SP=-2.53D-01.
 ITry= 8 IFail=1 DXMaxC= 2.60D-02 DCOld= 1.00D+10 DXMaxT= 1.07D+00 DXLimC= 3.00D+00 Rises=F
 Iteration  1 RMS(Cart)=  0.02441204 RMS(Int)=  0.02949049
 New curvilinear step failed, DQL= 1.63D-02 SP=-4.98D-01.
 ITry= 9 IFail=1 DXMaxC= 2.60D-02 DCOld= 1.00D+10 DXMaxT= 1.07D+00 DXLimC= 3.00D+00 Rises=F
 Iteration  1 RMS(Cart)=  0.01666045 RMS(Int)=  0.00905408
 New curvilinear step failed, DQL= 1.97D-04 SP=-1.41D-01.
 ITry=10 IFail=1 DXMaxC= 1.84D-02 DCOld= 1.00D+10 DXMaxT= 1.07D+00 DXLimC= 3.00D+00 Rises=F
 RedQX1 iteration     1 Try  1 RMS(Cart)=  0.02986811 RMS(Int)=  0.18527742 XScale=  6.51188858
 RedQX1 iteration     1 Try  2 RMS(Cart)=  0.03550162 RMS(Int)=  0.19498654 XScale=  2.79811825
 RedQX1 iteration     1 Try  3 RMS(Cart)=  0.05389583 RMS(Int)=  0.23613710 XScale=  1.53357883
 RedQX1 iteration     1 Try  4 RMS(Cart)=  0.10287041 RMS(Int)=  0.34191273 XScale=  0.84197759
 RedQX1 iteration     2 Try  1 RMS(Cart)=  0.04114816 RMS(Int)=  0.27744658 XScale=  1.16228826
 RedQX1 iteration     2 Try  2 RMS(Cart)=  0.06109056 RMS(Int)=  0.34239004 XScale=  0.85355048
 RedQX1 iteration     3 Try  1 RMS(Cart)=  0.04887245 RMS(Int)=  0.32930664 XScale=  0.90239822
 RedQX1 iteration     4 Try  1 RMS(Cart)=  0.00977449 RMS(Int)=  0.28774291 XScale=  1.10017530
 RedQX1 iteration     4 Try  2 RMS(Cart)=  0.01057369 RMS(Int)=  0.29896453 XScale=  1.03980539
 RedQX1 iteration     4 Try  3 RMS(Cart)=  0.01147740 RMS(Int)=  0.31122309 XScale=  0.98111597
 RedQX1 iteration     5 Try  1 RMS(Cart)=  0.01055921 RMS(Int)=  0.31024102 XScale=  0.98558963
 RedQX1 iteration     6 Try  1 RMS(Cart)=  0.00211184 RMS(Int)=  0.30121716 XScale=  1.02853958
 RedQX1 iteration     6 Try  2 RMS(Cart)=  0.00214536 RMS(Int)=  0.30350811 XScale=  1.01733216
 RedQX1 iteration     6 Try  3 RMS(Cart)=  0.00217970 RMS(Int)=  0.30583825 XScale=  1.00618281
 RedQX1 iteration     6 Try  4 RMS(Cart)=  0.00221488 RMS(Int)=  0.30820848 XScale=  0.99509122
 RedQX1 iteration     7 Try  1 RMS(Cart)=  0.00216172 RMS(Int)=  0.30815158 XScale=  0.99535484
 RedQX1 iteration     8 Try  1 RMS(Cart)=  0.00043234 RMS(Int)=  0.30630081 XScale=  1.00400035
 RedQX1 iteration     8 Try  2 RMS(Cart)=  0.00043371 RMS(Int)=  0.30676493 XScale=  1.00182009
 RedQX1 iteration     8 Try  3 RMS(Cart)=  0.00043508 RMS(Int)=  0.30723062 XScale=  0.99964205
 RedQX1 iteration     8 Try  4 RMS(Cart)=  0.00043646 RMS(Int)=  0.30769786 XScale=  0.99746621
 RedQX1 iteration     9 Try  1 RMS(Cart)=  0.00043436 RMS(Int)=  0.30769562 XScale=  0.99747664
 RedQX1 iteration    10 Try  1 RMS(Cart)=  0.00008687 RMS(Int)=  0.30732361 XScale=  0.99920829
 RedQX1 iteration    10 Try  2 RMS(Cart)=  0.00008693 RMS(Int)=  0.30741667 XScale=  0.99877462
 RedQX1 iteration    11 Try  1 RMS(Cart)=  0.00008690 RMS(Int)=  0.30741664 XScale=  0.99877476
 RedQX1 iteration    12 Try  1 RMS(Cart)=  0.00001738 RMS(Int)=  0.30734222 XScale=  0.99912156
 RedQX1 iteration    12 Try  2 RMS(Cart)=  0.00001738 RMS(Int)=  0.30736083 XScale=  0.99903483
 RedQX1 iteration    12 Try  3 RMS(Cart)=  0.00001738 RMS(Int)=  0.30737944 XScale=  0.99894810
 RedQX1 iteration    13 Try  1 RMS(Cart)=  0.00001738 RMS(Int)=  0.30737943 XScale=  0.99894811
 RedQX1 iteration    14 Try  1 RMS(Cart)=  0.00000348 RMS(Int)=  0.30736455 XScale=  0.99901748
 RedQX1 iteration    14 Try  2 RMS(Cart)=  0.00000348 RMS(Int)=  0.30736827 XScale=  0.99900014
 RedQX1 iteration    14 Try  3 RMS(Cart)=  0.00000348 RMS(Int)=  0.30737199 XScale=  0.99898280
 RedQX1 iteration    15 Try  1 RMS(Cart)=  0.00000348 RMS(Int)=  0.30737199 XScale=  0.99898280
 RedQX1 iteration    16 Try  1 RMS(Cart)=  0.00000070 RMS(Int)=  0.30736901 XScale=  0.99899667
 RedQX1 iteration    17 Try  1 RMS(Cart)=  0.00000014 RMS(Int)=  0.30736842 XScale=  0.99899945
 RedQX1 iteration    18 Try  1 RMS(Cart)=  0.00000003 RMS(Int)=  0.30736830 XScale=  0.99900000
 ClnCor:  largest displacement from symmetrization is 5.82D-15 for atom     2.
 B after Tr=    -5.749519    9.365591    0.516080
         Rot=   -0.000000    0.851231    0.524077   -0.027361 Ang= 180.00 deg.
 Variable       Old X    -DE/DX   Delta X   Delta X   Delta X     New X
                                 (Linear)    (Quad)   (Total)
    R1        2.19214  -0.00782   0.00087  -0.17266  -0.09610   2.09604
    R2        2.16539   0.01935  -0.00030   0.20854   0.17285   2.33824
    A1        3.12203   0.00371   0.00485   0.22569  -0.29524   2.82679
         Item               Value     Threshold  Converged?
 Maximum Force            0.019347     0.000002     NO 
 RMS     Force            0.012236     0.000001     NO 
 Maximum Displacement     0.206358     0.000006     NO 
 RMS     Displacement     0.166403     0.000004     NO 
 Predicted change in Energy=-1.537669D-02
 GradGradGradGradGradGradGradGradGradGradGradGradGradGradGradGradGradGrad

                          Input orientation:                          
 ---------------------------------------------------------------------
 Center     Atomic      Atomic             Coordinates (Angstroms)
 Number     Number       Type             X           Y           Z
 ---------------------------------------------------------------------
      1          8           0       -4.888247    0.380875    0.187951
      2          6           0       -3.985557    1.009536    0.330105
      3          8           0       -2.915317    1.595249    0.123834
 ---------------------------------------------------------------------
                    Distance matrix (angstroms):
                    1          2          3
     1  O    0.000000
     2  C    1.109176   0.000000
     3  O    2.317600   1.237345   0.000000
 Stoichiometry    CO2
 Framework group  CS[SG(CO2)]
 Deg. of freedom     3
 Full point group                 CS      NOp   2
 Largest Abelian subgroup         CS      NOp   2
 Largest concise Abelian subgroup C1      NOp   1
                         Standard orientation:                         
 ---------------------------------------------------------------------
 Center     Atomic      Atomic             Coordinates (Angstroms)
 Number     Number       Type             X           Y           Z
 ---------------------------------------------------------------------
      1          8           0        1.092418    0.333530    0.000000
      2          6           0       -0.000000    0.141453    0.000000
      3          8           0       -1.092418   -0.439620   -0.000000
 ---------------------------------------------------------------------
 Rotational constants (GHZ):        1724.0918591          11.7547821          11.6751813
 Standard basis: CC-pVTZ (5D, 7F)
 There are    72 symmetry adapted cartesian basis functions of A'  symmetry.
 There are    33 symmetry adapted cartesian basis functions of A"  symmetry.
 There are    60 symmetry adapted basis functions of A'  symmetry.
 There are    30 symmetry adapted basis functions of A"  symmetry.
    90 basis functions,   156 primitive gaussians,   105 cartesian basis functions
    11 alpha electrons       11 beta electrons
       nuclear repulsion energy        58.0416914578 Hartrees.
 NAtoms=    3 NActive=    3 NUniq=    3 SFac= 1.00D+00 NAtFMM=   60 NAOKFM=F Big=F
 Integral buffers will be    131072 words long.
 Raffenetti 2 integral format.
 Two-electron integral symmetry is turned on.
 One-electron integrals computed using PRISM.
 NBasis=    90 RedAO= T EigKep=  1.96D-03  NBF=    60    30
 NBsUse=    90 1.00D-06 EigRej= -1.00D+00 NBFU=    60    30
 Initial guess from the checkpoint file:  "/scratch/dinius.ab/QMscratch/Gau-7436.chk"
 B after Tr=    -0.000000   -0.000000    0.000000
         Rot=    0.900410    0.000000   -0.000000   -0.435041 Ang= -51.58 deg.
 Initial guess orbital symmetries:
       Occupied  (A') (A') (A') (A') (A') (A') (A') (A") (A') (A")
                 (A')
       Virtual   (A') (A") (A') (A') (A') (A") (A') (A') (A") (A')
                 (A') (A") (A') (A') (A") (A') (A") (A') (A') (A')
                 (A') (A") (A') (A") (A') (A") (A') (A') (A") (A')
                 (A') (A") (A') (A') (A") (A') (A") (A') (A") (A')
                 (A") (A') (A') (A") (A') (A') (A') (A") (A") (A')
                 (A') (A') (A") (A') (A") (A') (A") (A') (A") (A')
                 (A') (A") (A') (A") (A') (A") (A') (A") (A') (A')
                 (A') (A') (A") (A') (A') (A") (A') (A') (A')
 ExpMin= 1.21D-01 ExpMax= 1.53D+04 ExpMxC= 5.22D+02 IAcc=2 IRadAn=         4 AccDes= 0.00D+00
 Harris functional with IExCor= 1009 and IRadAn=       4 diagonalized for initial guess.
 HarFok:  IExCor= 1009 AccDes= 0.00D+00 IRadAn=         4 IDoV= 1 UseB2=F ITyADJ=14
 ICtDFT=  3500011 ScaDFX=  1.000000  1.000000  1.000000  1.000000
 FoFCou: FMM=F IPFlag=           0 FMFlag=      100000 FMFlg1=           0
         NFxFlg=           0 DoJE=T BraDBF=F KetDBF=T FulRan=T
         wScrn=  0.000000 ICntrl=       500 IOpCl=  0 I1Cent=   200000004 NGrid=           0
         NMat0=    1 NMatS0=      1 NMatT0=    0 NMatD0=    1 NMtDS0=    0 NMtDT0=    0
 Petite list used in FoFCou.
 Keep R1 ints in memory in symmetry-blocked form, NReq=26998074.
 Requested convergence on RMS density matrix=1.00D-08 within 900 cycles.
 Requested convergence on MAX density matrix=1.00D-06.
 Requested convergence on             energy=1.00D-06.
 No special actions if energy rises.
 Integral accuracy reduced to 1.0D-05 until final iterations.
 Initial convergence to 1.0D-05 achieved.  Increase integral accuracy.
 SCF Done:  E(RM062X) =  -188.568412735     A.U. after   14 cycles
            NFock= 14  Conv=0.56D-08     -V/T= 2.0049
 Calling FoFJK, ICntrl=      2127 FMM=F ISym2X=1 I1Cent= 0 IOpClX= 0 NMat=1 NMatS=1 NMatT=0.
 ***** Axes restored to original set *****
 -------------------------------------------------------------------
 Center     Atomic                   Forces (Hartrees/Bohr)
 Number     Number              X              Y              Z
 -------------------------------------------------------------------
      1        8          -0.091481432   -0.052242316    0.012520076
      2        6           0.189372866    0.096144282   -0.054094854
      3        8          -0.097891435   -0.043901966    0.041574778
 -------------------------------------------------------------------
 Cartesian Forces:  Max     0.189372866 RMS     0.089768530

 GradGradGradGradGradGradGradGradGradGradGradGradGradGradGradGradGradGrad
 Berny optimization.
 Using GDIIS optimizer.
 FormGI is forming the generalized inverse of G from B-inverse, IUseBI=4.
 Internal  Forces:  Max     0.112383564 RMS     0.093906199
 Search for a local minimum.
 Step number   6 out of a maximum of  100
 All quantities printed in internal units (Hartrees-Bohrs-Radians)
 Swapping is turned off.
 Update second derivatives using D2CorX and points    3    4    5    6
 DE=  2.29D-02 DEPred=-1.54D-02 R=-1.49D+00
 Trust test=-1.49D+00 RLast= 3.55D-01 DXMaxT set to 5.34D-01
 The second derivative matrix:
                          R1        R2        A1
           R1           0.51698
           R2          -0.25705   0.74636
           A1           0.05474   0.07445   0.20861
 ITU= -1  1  1  1
     Eigenvalues ---    0.16650   0.39076   0.91468
 Cut down GDIIS permanently because of the redundancy. E 1
 DIIS coeff's:      0.16650      1.36436     -0.53085
 Cosine:  1.000 >  0.840
 Length:  0.999
 GDIIS step was calculated using  3 of the last  4 vectors.
 Iteration  1 RMS(Cart)=  0.11883212 RMS(Int)=  0.06614190
 Iteration  2 RMS(Cart)=  0.05901324 RMS(Int)=  0.00290867
 Iteration  3 RMS(Cart)=  0.00290630 RMS(Int)=  0.00000043
 Iteration  4 RMS(Cart)=  0.00000038 RMS(Int)=  0.00000000
 ClnCor:  largest displacement from symmetrization is 1.30D-15 for atom     2.
 Variable       Old X    -DE/DX   Delta X   Delta X   Delta X     New X
                                 (Linear)    (Quad)   (Total)
    R1        2.09604   0.10246   0.09123  -0.00596   0.08527   2.18130
    R2        2.33824  -0.11238  -0.14788  -0.00266  -0.15054   2.18770
    A1        2.82679   0.05769   0.30836   0.00570   0.31406   3.14085
         Item               Value     Threshold  Converged?
 Maximum Force            0.112384     0.000002     NO 
 RMS     Force            0.093906     0.000001     NO 
 Maximum Displacement     0.218909     0.000006     NO 
 RMS     Displacement     0.172469     0.000004     NO 
 Predicted change in Energy=-2.190169D-02
 GradGradGradGradGradGradGradGradGradGradGradGradGradGradGradGradGradGrad

                          Input orientation:                          
 ---------------------------------------------------------------------
 Center     Atomic      Atomic             Coordinates (Angstroms)
 Number     Number       Type             X           Y           Z
 ---------------------------------------------------------------------
      1          8           0       -4.913097    0.389411    0.244713
      2          6           0       -3.930712    0.994715    0.214263
      3          8           0       -2.945311    1.601534    0.182914
 ---------------------------------------------------------------------
                    Distance matrix (angstroms):
                    1          2          3
     1  O    0.000000
     2  C    1.154296   0.000000
     3  O    2.311978   1.157682   0.000000
 Stoichiometry    CO2
 Framework group  CS[SG(CO2)]
 Deg. of freedom     3
 Full point group                 CS      NOp   2
 Largest Abelian subgroup         CS      NOp   2
 Largest concise Abelian subgroup C1      NOp   1
                         Standard orientation:                         
 ---------------------------------------------------------------------
 Center     Atomic      Atomic             Coordinates (Angstroms)
 Number     Number       Type             X           Y           Z
 ---------------------------------------------------------------------
      1          8           0        0.284918    1.119851    0.000000
      2          6           0       -0.000000    0.001270    0.000000
      3          8           0       -0.284918   -1.120803   -0.000000
 ---------------------------------------------------------------------
 Rotational constants (GHZ):   312458209.6085143          11.8221814          11.8221810
 Standard basis: CC-pVTZ (5D, 7F)
 There are    72 symmetry adapted cartesian basis functions of A'  symmetry.
 There are    33 symmetry adapted cartesian basis functions of A"  symmetry.
 There are    60 symmetry adapted basis functions of A'  symmetry.
 There are    30 symmetry adapted basis functions of A"  symmetry.
    90 basis functions,   156 primitive gaussians,   105 cartesian basis functions
    11 alpha electrons       11 beta electrons
       nuclear repulsion energy        58.5946652127 Hartrees.
 NAtoms=    3 NActive=    3 NUniq=    3 SFac= 1.00D+00 NAtFMM=   60 NAOKFM=F Big=F
 Integral buffers will be    131072 words long.
 Raffenetti 2 integral format.
 Two-electron integral symmetry is turned on.
 One-electron integrals computed using PRISM.
 NBasis=    90 RedAO= T EigKep=  1.70D-03  NBF=    60    30
 NBsUse=    90 1.00D-06 EigRej= -1.00D+00 NBFU=    60    30
 Initial guess from the checkpoint file:  "/scratch/dinius.ab/QMscratch/Gau-7436.chk"
 B after Tr=     0.000000    0.000000   -0.000000
         Rot=    0.881960   -0.000000   -0.000000   -0.471324 Ang= -56.24 deg.
 Initial guess orbital symmetries:
       Occupied  (A') (A') (A') (A') (A') (A') (A') (A") (A') (A")
                 (A')
       Virtual   (A') (A") (A') (A') (A') (A") (A') (A') (A") (A')
                 (A') (A") (A') (A') (A") (A') (A") (A') (A') (A')
                 (A") (A') (A') (A") (A') (A") (A') (A') (A") (A')
                 (A') (A") (A') (A') (A") (A') (A") (A') (A") (A')
                 (A") (A') (A') (A") (A') (A') (A') (A") (A") (A')
                 (A') (A') (A") (A') (A") (A') (A") (A') (A") (A')
                 (A') (A") (A') (A') (A") (A") (A') (A') (A") (A')
                 (A') (A') (A") (A") (A') (A') (A') (A') (A')
 ExpMin= 1.21D-01 ExpMax= 1.53D+04 ExpMxC= 5.22D+02 IAcc=2 IRadAn=         4 AccDes= 0.00D+00
 Harris functional with IExCor= 1009 and IRadAn=       4 diagonalized for initial guess.
 HarFok:  IExCor= 1009 AccDes= 0.00D+00 IRadAn=         4 IDoV= 1 UseB2=F ITyADJ=14
 ICtDFT=  3500011 ScaDFX=  1.000000  1.000000  1.000000  1.000000
 FoFCou: FMM=F IPFlag=           0 FMFlag=      100000 FMFlg1=           0
         NFxFlg=           0 DoJE=T BraDBF=F KetDBF=T FulRan=T
         wScrn=  0.000000 ICntrl=       500 IOpCl=  0 I1Cent=   200000004 NGrid=           0
         NMat0=    1 NMatS0=      1 NMatT0=    0 NMatD0=    1 NMtDS0=    0 NMtDT0=    0
 Petite list used in FoFCou.
 Keep R1 ints in memory in symmetry-blocked form, NReq=26998074.
 Requested convergence on RMS density matrix=1.00D-08 within 900 cycles.
 Requested convergence on MAX density matrix=1.00D-06.
 Requested convergence on             energy=1.00D-06.
 No special actions if energy rises.
 Integral accuracy reduced to 1.0D-05 until final iterations.
 Initial convergence to 1.0D-05 achieved.  Increase integral accuracy.
 SCF Done:  E(RM062X) =  -188.591584212     A.U. after   13 cycles
            NFock= 13  Conv=0.65D-08     -V/T= 2.0047
 Calling FoFJK, ICntrl=      2127 FMM=F ISym2X=1 I1Cent= 0 IOpClX= 0 NMat=1 NMatS=1 NMatT=0.
 ***** Axes restored to original set *****
 -------------------------------------------------------------------
 Center     Atomic                   Forces (Hartrees/Bohr)
 Number     Number              X              Y              Z
 -------------------------------------------------------------------
      1        8          -0.001376389   -0.000821603    0.000104813
      2        6           0.005422599    0.003288784   -0.000291095
      3        8          -0.004046210   -0.002467181    0.000186281
 -------------------------------------------------------------------
 Cartesian Forces:  Max     0.005422599 RMS     0.002695251

 GradGradGradGradGradGradGradGradGradGradGradGradGradGradGradGradGradGrad
 Berny optimization.
 Using GDIIS optimizer.
 FormGI is forming the generalized inverse of G from B-inverse, IUseBI=4.
 Internal  Forces:  Max     0.004742333 RMS     0.002891672
 Search for a local minimum.
 Step number   7 out of a maximum of  100
 All quantities printed in internal units (Hartrees-Bohrs-Radians)
 Swapping is turned off.
 Update second derivatives using D2CorX and points    4    5    6    7
 DE= -2.32D-02 DEPred=-2.19D-02 R= 1.06D+00
 TightC=F SS=  1.41D+00  RLast= 3.59D-01 DXNew= 8.9726D-01 1.0757D+00
 Trust test= 1.06D+00 RLast= 3.59D-01 DXMaxT set to 8.97D-01
 The second derivative matrix:
                          R1        R2        A1
           R1           0.49874
           R2          -0.16243   0.77635
           A1           0.10786   0.07349   0.18918
 ITU=  1 -1  1  1
     Eigenvalues ---    0.13181   0.48051   0.85195
 Cut down GDIIS permanently because of the redundancy. E 1
 DIIS coeff's:      0.87640     -0.01051      0.13411
 Cosine:  0.999 >  0.840
 Length:  0.891
 GDIIS step was calculated using  3 of the last  4 vectors.
 Iteration  1 RMS(Cart)=  0.00261908 RMS(Int)=  0.00192647
 New curvilinear step failed, DQL= 6.81D-04 SP=-2.25D-01.
 ITry= 1 IFail=1 DXMaxC= 2.96D-03 DCOld= 1.00D+10 DXMaxT= 8.97D-01 DXLimC= 3.00D+00 Rises=F
 Iteration  1 RMS(Cart)=  0.00257132 RMS(Int)=  0.00175634
 New curvilinear step failed, DQL= 5.19D-04 SP=-2.34D-01.
 ITry= 2 IFail=1 DXMaxC= 2.91D-03 DCOld= 1.00D+10 DXMaxT= 8.97D-01 DXLimC= 3.00D+00 Rises=F
 Iteration  1 RMS(Cart)=  0.00251734 RMS(Int)=  0.00158257
 New curvilinear step failed, DQL= 3.74D-04 SP=-2.42D-01.
 ITry= 3 IFail=1 DXMaxC= 2.86D-03 DCOld= 1.00D+10 DXMaxT= 8.97D-01 DXLimC= 3.00D+00 Rises=F
 Iteration  1 RMS(Cart)=  0.00245694 RMS(Int)=  0.00140475
 New curvilinear step failed, DQL= 2.48D-04 SP=-2.48D-01.
 ITry= 4 IFail=1 DXMaxC= 2.79D-03 DCOld= 1.00D+10 DXMaxT= 8.97D-01 DXLimC= 3.00D+00 Rises=F
 Iteration  1 RMS(Cart)=  0.00239022 RMS(Int)=  0.00122257
 New curvilinear step failed, DQL= 1.41D-04 SP=-2.52D-01.
 ITry= 5 IFail=1 DXMaxC= 2.71D-03 DCOld= 1.00D+10 DXMaxT= 8.97D-01 DXLimC= 3.00D+00 Rises=F
 Iteration  1 RMS(Cart)=  0.00231766 RMS(Int)=  0.00103582
 New curvilinear step failed, DQL= 5.67D-05 SP=-2.46D-01.
 ITry= 6 IFail=1 DXMaxC= 2.62D-03 DCOld= 1.00D+10 DXMaxT= 8.97D-01 DXLimC= 3.00D+00 Rises=F
 Iteration  1 RMS(Cart)=  0.00223839 RMS(Int)=  0.00084379
 Iteration  2 RMS(Cart)=  0.00075190 RMS(Int)=  0.00084310
 Iteration  3 RMS(Cart)=  0.00075128 RMS(Int)=  0.00084310
 Iteration  4 RMS(Cart)=  0.00075128 RMS(Int)=  0.00084310
 Iteration  5 RMS(Cart)=  0.00075128 RMS(Int)=  0.00084310
 Iteration  6 RMS(Cart)=  0.00075128 RMS(Int)=  0.00084310
 Iteration  7 RMS(Cart)=  0.00075128 RMS(Int)=  0.00084310
 Iteration  8 RMS(Cart)=  0.00075128 RMS(Int)=  0.00084310
 Iteration  9 RMS(Cart)=  0.00075128 RMS(Int)=  0.00084310
 Iteration 10 RMS(Cart)=  0.00075128 RMS(Int)=  0.00084310
 Iteration 11 RMS(Cart)=  0.00075128 RMS(Int)=  0.00084310
 Iteration 12 RMS(Cart)=  0.00075128 RMS(Int)=  0.00084310
 Iteration 13 RMS(Cart)=  0.00075128 RMS(Int)=  0.00084310
 Iteration 14 RMS(Cart)=  0.00075128 RMS(Int)=  0.00084310
 Iteration 15 RMS(Cart)=  0.00075128 RMS(Int)=  0.00084310
 Iteration 16 RMS(Cart)=  0.00075128 RMS(Int)=  0.00084310
 Iteration 17 RMS(Cart)=  0.00075128 RMS(Int)=  0.00084310
 Iteration 18 RMS(Cart)=  0.00075128 RMS(Int)=  0.00084310
 Iteration 19 RMS(Cart)=  0.00075128 RMS(Int)=  0.00084310
 Iteration 20 RMS(Cart)=  0.00075128 RMS(Int)=  0.00084310
 Iteration 21 RMS(Cart)=  0.00075128 RMS(Int)=  0.00084310
 Iteration 22 RMS(Cart)=  0.00075128 RMS(Int)=  0.00084310
 Iteration 23 RMS(Cart)=  0.00075128 RMS(Int)=  0.00084310
 Iteration 24 RMS(Cart)=  0.00075128 RMS(Int)=  0.00084310
 Iteration 25 RMS(Cart)=  0.00075128 RMS(Int)=  0.00084310
 Iteration 26 RMS(Cart)=  0.00075128 RMS(Int)=  0.00084310
 Iteration 27 RMS(Cart)=  0.00075128 RMS(Int)=  0.00084310
 Iteration 28 RMS(Cart)=  0.00075128 RMS(Int)=  0.00084310
 Iteration 29 RMS(Cart)=  0.00075128 RMS(Int)=  0.00084310
 Iteration 30 RMS(Cart)=  0.00075128 RMS(Int)=  0.00084310
 Iteration 31 RMS(Cart)=  0.00075128 RMS(Int)=  0.00084310
 Iteration 32 RMS(Cart)=  0.00075128 RMS(Int)=  0.00084310
 Iteration 33 RMS(Cart)=  0.00075128 RMS(Int)=  0.00084310
 Iteration 34 RMS(Cart)=  0.00075128 RMS(Int)=  0.00084310
 Iteration 35 RMS(Cart)=  0.00075128 RMS(Int)=  0.00084310
 Iteration 36 RMS(Cart)=  0.00075128 RMS(Int)=  0.00084310
 Iteration 37 RMS(Cart)=  0.00075128 RMS(Int)=  0.00084310
 Iteration 38 RMS(Cart)=  0.00075128 RMS(Int)=  0.00084310
 Iteration 39 RMS(Cart)=  0.00075128 RMS(Int)=  0.00084310
 Iteration 40 RMS(Cart)=  0.00075128 RMS(Int)=  0.00084310
 Iteration 41 RMS(Cart)=  0.00075128 RMS(Int)=  0.00084310
 Iteration 42 RMS(Cart)=  0.00075128 RMS(Int)=  0.00084310
 Iteration 43 RMS(Cart)=  0.00075128 RMS(Int)=  0.00084310
 Iteration 44 RMS(Cart)=  0.00075128 RMS(Int)=  0.00084310
 Iteration 45 RMS(Cart)=  0.00075128 RMS(Int)=  0.00084310
 Iteration 46 RMS(Cart)=  0.00075128 RMS(Int)=  0.00084310
 Iteration 47 RMS(Cart)=  0.00075128 RMS(Int)=  0.00084310
 Iteration 48 RMS(Cart)=  0.00075128 RMS(Int)=  0.00084310
 Iteration 49 RMS(Cart)=  0.00075128 RMS(Int)=  0.00084310
 Iteration 50 RMS(Cart)=  0.00075128 RMS(Int)=  0.00084310
 Iteration 51 RMS(Cart)=  0.00075128 RMS(Int)=  0.00084310
 Iteration 52 RMS(Cart)=  0.00075128 RMS(Int)=  0.00084310
 Iteration 53 RMS(Cart)=  0.00075128 RMS(Int)=  0.00084310
 Iteration 54 RMS(Cart)=  0.00075128 RMS(Int)=  0.00084310
 Iteration 55 RMS(Cart)=  0.00075128 RMS(Int)=  0.00084310
 Iteration 56 RMS(Cart)=  0.00075128 RMS(Int)=  0.00084310
 Iteration 57 RMS(Cart)=  0.00075128 RMS(Int)=  0.00084310
 Iteration 58 RMS(Cart)=  0.00075128 RMS(Int)=  0.00084310
 Iteration 59 RMS(Cart)=  0.00075128 RMS(Int)=  0.00084310
 Iteration 60 RMS(Cart)=  0.00075128 RMS(Int)=  0.00084310
 Iteration 61 RMS(Cart)=  0.00075128 RMS(Int)=  0.00084310
 Iteration 62 RMS(Cart)=  0.00075128 RMS(Int)=  0.00084310
 Iteration 63 RMS(Cart)=  0.00075128 RMS(Int)=  0.00084310
 Iteration 64 RMS(Cart)=  0.00075128 RMS(Int)=  0.00084310
 Iteration 65 RMS(Cart)=  0.00075128 RMS(Int)=  0.00084310
 Iteration 66 RMS(Cart)=  0.00075128 RMS(Int)=  0.00084310
 Iteration 67 RMS(Cart)=  0.00075128 RMS(Int)=  0.00084310
 Iteration 68 RMS(Cart)=  0.00075128 RMS(Int)=  0.00084310
 Iteration 69 RMS(Cart)=  0.00075128 RMS(Int)=  0.00084310
 Iteration 70 RMS(Cart)=  0.00075128 RMS(Int)=  0.00084310
 Iteration 71 RMS(Cart)=  0.00075128 RMS(Int)=  0.00084310
 Iteration 72 RMS(Cart)=  0.00075128 RMS(Int)=  0.00084310
 Iteration 73 RMS(Cart)=  0.00075128 RMS(Int)=  0.00084310
 Iteration 74 RMS(Cart)=  0.00075128 RMS(Int)=  0.00084310
 Iteration 75 RMS(Cart)=  0.00075128 RMS(Int)=  0.00084310
 Iteration 76 RMS(Cart)=  0.00075128 RMS(Int)=  0.00084310
 Iteration 77 RMS(Cart)=  0.00075128 RMS(Int)=  0.00084310
 Iteration 78 RMS(Cart)=  0.00075128 RMS(Int)=  0.00084310
 Iteration 79 RMS(Cart)=  0.00075128 RMS(Int)=  0.00084310
 Iteration 80 RMS(Cart)=  0.00075128 RMS(Int)=  0.00084310
 Iteration 81 RMS(Cart)=  0.00075128 RMS(Int)=  0.00084310
 Iteration 82 RMS(Cart)=  0.00075128 RMS(Int)=  0.00084310
 Iteration 83 RMS(Cart)=  0.00075128 RMS(Int)=  0.00084310
 Iteration 84 RMS(Cart)=  0.00075128 RMS(Int)=  0.00084310
 Iteration 85 RMS(Cart)=  0.00075128 RMS(Int)=  0.00084310
 Iteration 86 RMS(Cart)=  0.00075128 RMS(Int)=  0.00084310
 Iteration 87 RMS(Cart)=  0.00075128 RMS(Int)=  0.00084310
 Iteration 88 RMS(Cart)=  0.00075128 RMS(Int)=  0.00084310
 Iteration 89 RMS(Cart)=  0.00075128 RMS(Int)=  0.00084310
 Iteration 90 RMS(Cart)=  0.00075128 RMS(Int)=  0.00084310
 Iteration 91 RMS(Cart)=  0.00075128 RMS(Int)=  0.00084310
 Iteration 92 RMS(Cart)=  0.00075128 RMS(Int)=  0.00084310
 Iteration 93 RMS(Cart)=  0.00075128 RMS(Int)=  0.00084310
 Iteration 94 RMS(Cart)=  0.00075128 RMS(Int)=  0.00084310
 Iteration 95 RMS(Cart)=  0.00075128 RMS(Int)=  0.00084310
 Iteration 96 RMS(Cart)=  0.00075128 RMS(Int)=  0.00084310
 Iteration 97 RMS(Cart)=  0.00075128 RMS(Int)=  0.00084310
 Iteration 98 RMS(Cart)=  0.00075128 RMS(Int)=  0.00084310
 Iteration 99 RMS(Cart)=  0.00075128 RMS(Int)=  0.00084310
 Iteration100 RMS(Cart)=  0.00075128 RMS(Int)=  0.00084310
 New curvilinear step not converged.
 ITry= 7 IFail=1 DXMaxC= 2.43D-03 DCOld= 1.00D+10 DXMaxT= 8.97D-01 DXLimC= 3.00D+00 Rises=F
 Iteration  1 RMS(Cart)=  0.00214239 RMS(Int)=  0.00064240
 Iteration  2 RMS(Cart)=  0.00057248 RMS(Int)=  0.00064185
 Iteration  3 RMS(Cart)=  0.00057199 RMS(Int)=  0.00064185
 Iteration  4 RMS(Cart)=  0.00057199 RMS(Int)=  0.00064185
 Iteration  5 RMS(Cart)=  0.00057199 RMS(Int)=  0.00064185
 Iteration  6 RMS(Cart)=  0.00057199 RMS(Int)=  0.00064185
 Iteration  7 RMS(Cart)=  0.00057199 RMS(Int)=  0.00064185
 Iteration  8 RMS(Cart)=  0.00057199 RMS(Int)=  0.00064185
 Iteration  9 RMS(Cart)=  0.00057199 RMS(Int)=  0.00064185
 Iteration 10 RMS(Cart)=  0.00057199 RMS(Int)=  0.00064185
 Iteration 11 RMS(Cart)=  0.00057199 RMS(Int)=  0.00064185
 Iteration 12 RMS(Cart)=  0.00057199 RMS(Int)=  0.00064185
 Iteration 13 RMS(Cart)=  0.00057199 RMS(Int)=  0.00064185
 Iteration 14 RMS(Cart)=  0.00057199 RMS(Int)=  0.00064185
 Iteration 15 RMS(Cart)=  0.00057199 RMS(Int)=  0.00064185
 Iteration 16 RMS(Cart)=  0.00057199 RMS(Int)=  0.00064185
 Iteration 17 RMS(Cart)=  0.00057199 RMS(Int)=  0.00064185
 Iteration 18 RMS(Cart)=  0.00057199 RMS(Int)=  0.00064185
 Iteration 19 RMS(Cart)=  0.00057199 RMS(Int)=  0.00064185
 Iteration 20 RMS(Cart)=  0.00057199 RMS(Int)=  0.00064185
 Iteration 21 RMS(Cart)=  0.00057199 RMS(Int)=  0.00064185
 Iteration 22 RMS(Cart)=  0.00057199 RMS(Int)=  0.00064185
 Iteration 23 RMS(Cart)=  0.00057199 RMS(Int)=  0.00064185
 Iteration 24 RMS(Cart)=  0.00057199 RMS(Int)=  0.00064185
 Iteration 25 RMS(Cart)=  0.00057199 RMS(Int)=  0.00064185
 Iteration 26 RMS(Cart)=  0.00057199 RMS(Int)=  0.00064185
 Iteration 27 RMS(Cart)=  0.00057199 RMS(Int)=  0.00064185
 Iteration 28 RMS(Cart)=  0.00057199 RMS(Int)=  0.00064185
 Iteration 29 RMS(Cart)=  0.00057199 RMS(Int)=  0.00064185
[...]
 Iteration 86 RMS(Cart)=  0.00115657 RMS(Int)=  0.00129782
 Iteration 87 RMS(Cart)=  0.00115657 RMS(Int)=  0.00129782
 Iteration 88 RMS(Cart)=  0.00115657 RMS(Int)=  0.00129782
 Iteration 89 RMS(Cart)=  0.00115657 RMS(Int)=  0.00129782
 Iteration 90 RMS(Cart)=  0.00115657 RMS(Int)=  0.00129782
 Iteration 91 RMS(Cart)=  0.00115657 RMS(Int)=  0.00129782
 Iteration 92 RMS(Cart)=  0.00115657 RMS(Int)=  0.00129782
 Iteration 93 RMS(Cart)=  0.00115657 RMS(Int)=  0.00129782
 Iteration 94 RMS(Cart)=  0.00115657 RMS(Int)=  0.00129782
 Iteration 95 RMS(Cart)=  0.00115657 RMS(Int)=  0.00129782
 Iteration 96 RMS(Cart)=  0.00115657 RMS(Int)=  0.00129782
 Iteration 97 RMS(Cart)=  0.00115657 RMS(Int)=  0.00129782
 Iteration 98 RMS(Cart)=  0.00115657 RMS(Int)=  0.00129782
 Iteration 99 RMS(Cart)=  0.00115657 RMS(Int)=  0.00129782
 Iteration100 RMS(Cart)=  0.00115657 RMS(Int)=  0.00129782
 New curvilinear step not converged.
 ITry= 4 IFail=1 DXMaxC= 6.23D-04 DCOld= 1.00D+10 DXMaxT= 8.97D-01 DXLimC= 3.00D+00 Rises=F
 Iteration  1 RMS(Cart)=  0.00113995 RMS(Int)=  0.00083109
 Iteration  2 RMS(Cart)=  0.00074066 RMS(Int)=  0.00083083
 Iteration  3 RMS(Cart)=  0.00074043 RMS(Int)=  0.00083083
 Iteration  4 RMS(Cart)=  0.00074043 RMS(Int)=  0.00083083
 Iteration  5 RMS(Cart)=  0.00074043 RMS(Int)=  0.00083083
 Iteration  6 RMS(Cart)=  0.00074043 RMS(Int)=  0.00083083
 Iteration  7 RMS(Cart)=  0.00074043 RMS(Int)=  0.00083083
 Iteration  8 RMS(Cart)=  0.00074043 RMS(Int)=  0.00083083
 Iteration  9 RMS(Cart)=  0.00074043 RMS(Int)=  0.00083083
 Iteration 10 RMS(Cart)=  0.00074043 RMS(Int)=  0.00083083
 Iteration 11 RMS(Cart)=  0.00074043 RMS(Int)=  0.00083083
 Iteration 12 RMS(Cart)=  0.00074043 RMS(Int)=  0.00083083
 Iteration 13 RMS(Cart)=  0.00074043 RMS(Int)=  0.00083083
 Iteration 14 RMS(Cart)=  0.00074043 RMS(Int)=  0.00083083
 Iteration 15 RMS(Cart)=  0.00074043 RMS(Int)=  0.00083083
 Iteration 16 RMS(Cart)=  0.00074043 RMS(Int)=  0.00083083
 Iteration 17 RMS(Cart)=  0.00074043 RMS(Int)=  0.00083083
 Iteration 18 RMS(Cart)=  0.00074043 RMS(Int)=  0.00083083
 Iteration 19 RMS(Cart)=  0.00074043 RMS(Int)=  0.00083083
 Iteration 20 RMS(Cart)=  0.00074043 RMS(Int)=  0.00083083
 Iteration 21 RMS(Cart)=  0.00074043 RMS(Int)=  0.00083083
 Iteration 22 RMS(Cart)=  0.00074043 RMS(Int)=  0.00083083
 Iteration 23 RMS(Cart)=  0.00074043 RMS(Int)=  0.00083083
 Iteration 24 RMS(Cart)=  0.00074043 RMS(Int)=  0.00083083
 Iteration 25 RMS(Cart)=  0.00074043 RMS(Int)=  0.00083083
 Iteration 26 RMS(Cart)=  0.00074043 RMS(Int)=  0.00083083
 Iteration 27 RMS(Cart)=  0.00074043 RMS(Int)=  0.00083083
 Iteration 28 RMS(Cart)=  0.00074043 RMS(Int)=  0.00083083
 Iteration 29 RMS(Cart)=  0.00074043 RMS(Int)=  0.00083083
 Iteration 30 RMS(Cart)=  0.00074043 RMS(Int)=  0.00083083
 Iteration 31 RMS(Cart)=  0.00074043 RMS(Int)=  0.00083083
 Iteration 32 RMS(Cart)=  0.00074043 RMS(Int)=  0.00083083
 Iteration 33 RMS(Cart)=  0.00074043 RMS(Int)=  0.00083083
 Iteration 34 RMS(Cart)=  0.00074043 RMS(Int)=  0.00083083
 Iteration 35 RMS(Cart)=  0.00074043 RMS(Int)=  0.00083083
 Iteration 36 RMS(Cart)=  0.00074043 RMS(Int)=  0.00083083
 Iteration 37 RMS(Cart)=  0.00074043 RMS(Int)=  0.00083083
 Iteration 38 RMS(Cart)=  0.00074043 RMS(Int)=  0.00083083
 Iteration 39 RMS(Cart)=  0.00074043 RMS(Int)=  0.00083083
 Iteration 40 RMS(Cart)=  0.00074043 RMS(Int)=  0.00083083
 Iteration 41 RMS(Cart)=  0.00074043 RMS(Int)=  0.00083083
 Iteration 42 RMS(Cart)=  0.00074043 RMS(Int)=  0.00083083
 Iteration 43 RMS(Cart)=  0.00074043 RMS(Int)=  0.00083083
 Iteration 44 RMS(Cart)=  0.00074043 RMS(Int)=  0.00083083
 Iteration 45 RMS(Cart)=  0.00074043 RMS(Int)=  0.00083083
 Iteration 46 RMS(Cart)=  0.00074043 RMS(Int)=  0.00083083
 Iteration 47 RMS(Cart)=  0.00074043 RMS(Int)=  0.00083083
 Iteration 48 RMS(Cart)=  0.00074043 RMS(Int)=  0.00083083
 Iteration 49 RMS(Cart)=  0.00074043 RMS(Int)=  0.00083083
 Iteration 50 RMS(Cart)=  0.00074043 RMS(Int)=  0.00083083
 Iteration 51 RMS(Cart)=  0.00074043 RMS(Int)=  0.00083083
 Iteration 52 RMS(Cart)=  0.00074043 RMS(Int)=  0.00083083
 Iteration 53 RMS(Cart)=  0.00074043 RMS(Int)=  0.00083083
 Iteration 54 RMS(Cart)=  0.00074043 RMS(Int)=  0.00083083
 Iteration 55 RMS(Cart)=  0.00074043 RMS(Int)=  0.00083083
 Iteration 56 RMS(Cart)=  0.00074043 RMS(Int)=  0.00083083
 Iteration 57 RMS(Cart)=  0.00074043 RMS(Int)=  0.00083083
 Iteration 58 RMS(Cart)=  0.00074043 RMS(Int)=  0.00083083
 Iteration 59 RMS(Cart)=  0.00074043 RMS(Int)=  0.00083083
 Iteration 60 RMS(Cart)=  0.00074043 RMS(Int)=  0.00083083
 Iteration 61 RMS(Cart)=  0.00074043 RMS(Int)=  0.00083083
 Iteration 62 RMS(Cart)=  0.00074043 RMS(Int)=  0.00083083
 Iteration 63 RMS(Cart)=  0.00074043 RMS(Int)=  0.00083083
 Iteration 64 RMS(Cart)=  0.00074043 RMS(Int)=  0.00083083
 Iteration 65 RMS(Cart)=  0.00074043 RMS(Int)=  0.00083083
 Iteration 66 RMS(Cart)=  0.00074043 RMS(Int)=  0.00083083
 Iteration 67 RMS(Cart)=  0.00074043 RMS(Int)=  0.00083083
 Iteration 68 RMS(Cart)=  0.00074043 RMS(Int)=  0.00083083
 Iteration 69 RMS(Cart)=  0.00074043 RMS(Int)=  0.00083083
 Iteration 70 RMS(Cart)=  0.00074043 RMS(Int)=  0.00083083
 Iteration 71 RMS(Cart)=  0.00074043 RMS(Int)=  0.00083083
 Iteration 72 RMS(Cart)=  0.00074043 RMS(Int)=  0.00083083
 Iteration 73 RMS(Cart)=  0.00074043 RMS(Int)=  0.00083083
 Iteration 74 RMS(Cart)=  0.00074043 RMS(Int)=  0.00083083
 Iteration 75 RMS(Cart)=  0.00074043 RMS(Int)=  0.00083083
 Iteration 76 RMS(Cart)=  0.00074043 RMS(Int)=  0.00083083
 Iteration 77 RMS(Cart)=  0.00074043 RMS(Int)=  0.00083083
 Iteration 78 RMS(Cart)=  0.00074043 RMS(Int)=  0.00083083
 Iteration 79 RMS(Cart)=  0.00074043 RMS(Int)=  0.00083083
 Iteration 80 RMS(Cart)=  0.00074043 RMS(Int)=  0.00083083
 Iteration 81 RMS(Cart)=  0.00074043 RMS(Int)=  0.00083083
 Iteration 82 RMS(Cart)=  0.00074043 RMS(Int)=  0.00083083
 Iteration 83 RMS(Cart)=  0.00074043 RMS(Int)=  0.00083083
 Iteration 84 RMS(Cart)=  0.00074043 RMS(Int)=  0.00083083
 Iteration 85 RMS(Cart)=  0.00074043 RMS(Int)=  0.00083083
 Iteration 86 RMS(Cart)=  0.00074043 RMS(Int)=  0.00083083
 Iteration 87 RMS(Cart)=  0.00074043 RMS(Int)=  0.00083083
 Iteration 88 RMS(Cart)=  0.00074043 RMS(Int)=  0.00083083
 Iteration 89 RMS(Cart)=  0.00074043 RMS(Int)=  0.00083083
 Iteration 90 RMS(Cart)=  0.00074043 RMS(Int)=  0.00083083
 Iteration 91 RMS(Cart)=  0.00074043 RMS(Int)=  0.00083083
 Iteration 92 RMS(Cart)=  0.00074043 RMS(Int)=  0.00083083
 Iteration 93 RMS(Cart)=  0.00074043 RMS(Int)=  0.00083083
 Iteration 94 RMS(Cart)=  0.00074043 RMS(Int)=  0.00083083
 Iteration 95 RMS(Cart)=  0.00074043 RMS(Int)=  0.00083083
 Iteration 96 RMS(Cart)=  0.00074043 RMS(Int)=  0.00083083
 Iteration 97 RMS(Cart)=  0.00074043 RMS(Int)=  0.00083083
 Iteration 98 RMS(Cart)=  0.00074043 RMS(Int)=  0.00083083
 Iteration 99 RMS(Cart)=  0.00074043 RMS(Int)=  0.00083083
 Iteration100 RMS(Cart)=  0.00074043 RMS(Int)=  0.00083083
 New curvilinear step not converged.
 ITry= 5 IFail=1 DXMaxC= 5.45D-04 DCOld= 1.00D+10 DXMaxT= 8.97D-01 DXLimC= 3.00D+00 Rises=F
 Iteration  1 RMS(Cart)=  0.00093413 RMS(Int)=  0.00036402
 Iteration  2 RMS(Cart)=  0.00032442 RMS(Int)=  0.00036385
 Iteration  3 RMS(Cart)=  0.00032427 RMS(Int)=  0.00036385
 Iteration  4 RMS(Cart)=  0.00032427 RMS(Int)=  0.00036385
 Iteration  5 RMS(Cart)=  0.00032427 RMS(Int)=  0.00036385
 Iteration  6 RMS(Cart)=  0.00032427 RMS(Int)=  0.00036385
 Iteration  7 RMS(Cart)=  0.00032427 RMS(Int)=  0.00036385
 Iteration  8 RMS(Cart)=  0.00032427 RMS(Int)=  0.00036385
 Iteration  9 RMS(Cart)=  0.00032427 RMS(Int)=  0.00036385
 Iteration 10 RMS(Cart)=  0.00032427 RMS(Int)=  0.00036385
 Iteration 11 RMS(Cart)=  0.00032427 RMS(Int)=  0.00036385
 Iteration 12 RMS(Cart)=  0.00032427 RMS(Int)=  0.00036385
 Iteration 13 RMS(Cart)=  0.00032427 RMS(Int)=  0.00036385
 Iteration 14 RMS(Cart)=  0.00032427 RMS(Int)=  0.00036385
 Iteration 15 RMS(Cart)=  0.00032427 RMS(Int)=  0.00036385
 Iteration 16 RMS(Cart)=  0.00032427 RMS(Int)=  0.00036385
 Iteration 17 RMS(Cart)=  0.00032427 RMS(Int)=  0.00036385
 Iteration 18 RMS(Cart)=  0.00032427 RMS(Int)=  0.00036385
 Iteration 19 RMS(Cart)=  0.00032427 RMS(Int)=  0.00036385
 Iteration 20 RMS(Cart)=  0.00032427 RMS(Int)=  0.00036385
 Iteration 21 RMS(Cart)=  0.00032427 RMS(Int)=  0.00036385
 Iteration 22 RMS(Cart)=  0.00032427 RMS(Int)=  0.00036385
 Iteration 23 RMS(Cart)=  0.00032427 RMS(Int)=  0.00036385
 Iteration 24 RMS(Cart)=  0.00032427 RMS(Int)=  0.00036385
 Iteration 25 RMS(Cart)=  0.00032427 RMS(Int)=  0.00036385
 Iteration 26 RMS(Cart)=  0.00032427 RMS(Int)=  0.00036385
 Iteration 27 RMS(Cart)=  0.00032427 RMS(Int)=  0.00036385
 Iteration 28 RMS(Cart)=  0.00032427 RMS(Int)=  0.00036385
 Iteration 29 RMS(Cart)=  0.00032427 RMS(Int)=  0.00036385
 Iteration 30 RMS(Cart)=  0.00032427 RMS(Int)=  0.00036385
 Iteration 31 RMS(Cart)=  0.00032427 RMS(Int)=  0.00036385
 Iteration 32 RMS(Cart)=  0.00032427 RMS(Int)=  0.00036385
 Iteration 33 RMS(Cart)=  0.00032427 RMS(Int)=  0.00036385
 Iteration 34 RMS(Cart)=  0.00032427 RMS(Int)=  0.00036385
 Iteration 35 RMS(Cart)=  0.00032427 RMS(Int)=  0.00036385
 Iteration 36 RMS(Cart)=  0.00032427 RMS(Int)=  0.00036385
 Iteration 37 RMS(Cart)=  0.00032427 RMS(Int)=  0.00036385
 Iteration 38 RMS(Cart)=  0.00032427 RMS(Int)=  0.00036385
 Iteration 39 RMS(Cart)=  0.00032427 RMS(Int)=  0.00036385
 Iteration 40 RMS(Cart)=  0.00032427 RMS(Int)=  0.00036385
 Iteration 41 RMS(Cart)=  0.00032427 RMS(Int)=  0.00036385
 Iteration 42 RMS(Cart)=  0.00032427 RMS(Int)=  0.00036385
 Iteration 43 RMS(Cart)=  0.00032427 RMS(Int)=  0.00036385
 Iteration 44 RMS(Cart)=  0.00032427 RMS(Int)=  0.00036385
 Iteration 45 RMS(Cart)=  0.00032427 RMS(Int)=  0.00036385
 Iteration 46 RMS(Cart)=  0.00032427 RMS(Int)=  0.00036385
 Iteration 47 RMS(Cart)=  0.00032427 RMS(Int)=  0.00036385
 Iteration 48 RMS(Cart)=  0.00032427 RMS(Int)=  0.00036385
 Iteration 49 RMS(Cart)=  0.00032427 RMS(Int)=  0.00036385
 Iteration 50 RMS(Cart)=  0.00032427 RMS(Int)=  0.00036385
 Iteration 51 RMS(Cart)=  0.00032427 RMS(Int)=  0.00036385
 Iteration 52 RMS(Cart)=  0.00032427 RMS(Int)=  0.00036385
 Iteration 53 RMS(Cart)=  0.00032427 RMS(Int)=  0.00036385
 Iteration 54 RMS(Cart)=  0.00032427 RMS(Int)=  0.00036385
 Iteration 55 RMS(Cart)=  0.00032427 RMS(Int)=  0.00036385
 Iteration 56 RMS(Cart)=  0.00032427 RMS(Int)=  0.00036385
 Iteration 57 RMS(Cart)=  0.00032427 RMS(Int)=  0.00036385
 Iteration 58 RMS(Cart)=  0.00032427 RMS(Int)=  0.00036385
 Iteration 59 RMS(Cart)=  0.00032427 RMS(Int)=  0.00036385
 Iteration 60 RMS(Cart)=  0.00032427 RMS(Int)=  0.00036385
 Iteration 61 RMS(Cart)=  0.00032427 RMS(Int)=  0.00036385
 Iteration 62 RMS(Cart)=  0.00032427 RMS(Int)=  0.00036385
 Iteration 63 RMS(Cart)=  0.00032427 RMS(Int)=  0.00036385
 Iteration 64 RMS(Cart)=  0.00032427 RMS(Int)=  0.00036385
 Iteration 65 RMS(Cart)=  0.00032427 RMS(Int)=  0.00036385
 Iteration 66 RMS(Cart)=  0.00032427 RMS(Int)=  0.00036385
 Iteration 67 RMS(Cart)=  0.00032427 RMS(Int)=  0.00036385
 Iteration 68 RMS(Cart)=  0.00032427 RMS(Int)=  0.00036385
 Iteration 69 RMS(Cart)=  0.00032427 RMS(Int)=  0.00036385
 Iteration 70 RMS(Cart)=  0.00032427 RMS(Int)=  0.00036385
 Iteration 71 RMS(Cart)=  0.00032427 RMS(Int)=  0.00036385
 Iteration 72 RMS(Cart)=  0.00032427 RMS(Int)=  0.00036385
 Iteration 73 RMS(Cart)=  0.00032427 RMS(Int)=  0.00036385
 Iteration 74 RMS(Cart)=  0.00032427 RMS(Int)=  0.00036385
 Iteration 75 RMS(Cart)=  0.00032427 RMS(Int)=  0.00036385
 Iteration 76 RMS(Cart)=  0.00032427 RMS(Int)=  0.00036385
 Iteration 77 RMS(Cart)=  0.00032427 RMS(Int)=  0.00036385
 Iteration 78 RMS(Cart)=  0.00032427 RMS(Int)=  0.00036385
 Iteration 79 RMS(Cart)=  0.00032427 RMS(Int)=  0.00036385
 Iteration 80 RMS(Cart)=  0.00032427 RMS(Int)=  0.00036385
 Iteration 81 RMS(Cart)=  0.00032427 RMS(Int)=  0.00036385
 Iteration 82 RMS(Cart)=  0.00032427 RMS(Int)=  0.00036385
 Iteration 83 RMS(Cart)=  0.00032427 RMS(Int)=  0.00036385
 Iteration 84 RMS(Cart)=  0.00032427 RMS(Int)=  0.00036385
 Iteration 85 RMS(Cart)=  0.00032427 RMS(Int)=  0.00036385
 Iteration 86 RMS(Cart)=  0.00032427 RMS(Int)=  0.00036385
 Iteration 87 RMS(Cart)=  0.00032427 RMS(Int)=  0.00036385
 Iteration 88 RMS(Cart)=  0.00032427 RMS(Int)=  0.00036385
 Iteration 89 RMS(Cart)=  0.00032427 RMS(Int)=  0.00036385
 Iteration 90 RMS(Cart)=  0.00032427 RMS(Int)=  0.00036385
 Iteration 91 RMS(Cart)=  0.00032427 RMS(Int)=  0.00036385
 Iteration 92 RMS(Cart)=  0.00032427 RMS(Int)=  0.00036385
 Iteration 93 RMS(Cart)=  0.00032427 RMS(Int)=  0.00036385
 Iteration 94 RMS(Cart)=  0.00032427 RMS(Int)=  0.00036385
 Iteration 95 RMS(Cart)=  0.00032427 RMS(Int)=  0.00036385
 Iteration 96 RMS(Cart)=  0.00032427 RMS(Int)=  0.00036385
 Iteration 97 RMS(Cart)=  0.00032427 RMS(Int)=  0.00036385
 Iteration 98 RMS(Cart)=  0.00032427 RMS(Int)=  0.00036385
 Iteration 99 RMS(Cart)=  0.00032427 RMS(Int)=  0.00036385
 Iteration100 RMS(Cart)=  0.00032427 RMS(Int)=  0.00036385
 New curvilinear step not converged.
 ITry= 6 IFail=1 DXMaxC= 6.56D-04 DCOld= 1.00D+10 DXMaxT= 8.97D-01 DXLimC= 3.00D+00 Rises=F
 Iteration  1 RMS(Cart)=  0.00073304 RMS(Int)=  0.00000034
 Iteration  2 RMS(Cart)=  0.00000034 RMS(Int)=  0.00000000
 ITry= 7 IFail=0 DXMaxC= 8.10D-04 DCOld= 1.00D+10 DXMaxT= 8.97D-01 DXLimC= 3.00D+00 Rises=F
 ClnCor:  largest displacement from symmetrization is 3.00D-15 for atom     3.
 Variable       Old X    -DE/DX   Delta X   Delta X   Delta X     New X
                                 (Linear)    (Quad)   (Total)
    R1        2.18416  -0.00102  -0.00062  -0.00075  -0.00092   2.18324
    R2        2.18272   0.00041   0.00039  -0.00046   0.00021   2.18293
    A1        3.14030   0.00024  -0.00042   0.00404   0.00120   3.14150
         Item               Value     Threshold  Converged?
 Maximum Force            0.001024     0.000002     NO 
 RMS     Force            0.000652     0.000001     NO 
 Maximum Displacement     0.000810     0.000006     NO 
 RMS     Displacement     0.000733     0.000004     NO 
 Predicted change in Energy=-8.618083D-07
 GradGradGradGradGradGradGradGradGradGradGradGradGradGradGradGradGradGrad

                          Input orientation:                          
 ---------------------------------------------------------------------
 Center     Atomic      Atomic             Coordinates (Angstroms)
 Number     Number       Type             X           Y           Z
 ---------------------------------------------------------------------
      1          8           0       -4.912980    0.389532    0.244826
      2          6           0       -3.929666    0.995259    0.213994
      3          8           0       -2.946474    1.600869    0.183070
 ---------------------------------------------------------------------
                    Distance matrix (angstroms):
                    1          2          3
     1  O    0.000000
     2  C    1.155319   0.000000
     3  O    2.310475   1.155156   0.000000
 Stoichiometry    CO2
 Framework group  C*V[C*(OCO)]
 Deg. of freedom     2
 Full point group                 C*V     NOp   4
 Omega: Change in point group or standard orientation.

 Old FWG=CS   [SG(C1O2)]
 New FWG=C*V  [C*(O1C1O1)]
 Largest Abelian subgroup         C2V     NOp   4
 Largest concise Abelian subgroup C1      NOp   1
                         Standard orientation:                         
 ---------------------------------------------------------------------
 Center     Atomic      Atomic             Coordinates (Angstroms)
 Number     Number       Type             X           Y           Z
 ---------------------------------------------------------------------
      1          8           0        0.000000    0.000000    1.155259
      2          6           0       -0.000000   -0.000000   -0.000059
      3          8           0       -0.000000   -0.000000   -1.155215
 ---------------------------------------------------------------------
 Rotational constants (GHZ):           0.0000000          11.8375781          11.8375781
 Standard basis: CC-pVTZ (5D, 7F)
 There are    48 symmetry adapted cartesian basis functions of A1  symmetry.
 There are     9 symmetry adapted cartesian basis functions of A2  symmetry.
 There are    24 symmetry adapted cartesian basis functions of B1  symmetry.
 There are    24 symmetry adapted cartesian basis functions of B2  symmetry.
 There are    39 symmetry adapted basis functions of A1  symmetry.
 There are     9 symmetry adapted basis functions of A2  symmetry.
 There are    21 symmetry adapted basis functions of B1  symmetry.
 There are    21 symmetry adapted basis functions of B2  symmetry.
    90 basis functions,   156 primitive gaussians,   105 cartesian basis functions
    11 alpha electrons       11 beta electrons
       nuclear repulsion energy        58.6327002081 Hartrees.
 NAtoms=    3 NActive=    3 NUniq=    3 SFac= 1.00D+00 NAtFMM=   60 NAOKFM=F Big=F
 Integral buffers will be    131072 words long.
 Raffenetti 2 integral format.
 Two-electron integral symmetry is turned on.
 One-electron integrals computed using PRISM.
 NBasis=    90 RedAO= T EigKep=  1.70D-03  NBF=    39     9    21    21
 NBsUse=    90 1.00D-06 EigRej= -1.00D+00 NBFU=    39     9    21    21
 Initial guess from the checkpoint file:  "/scratch/dinius.ab/QMscratch/Gau-7436.chk"
 B after Tr=     0.000000   -0.000000    0.000000
         Rot=    0.707107    0.322145    0.629462    0.000000 Ang=  90.00 deg.
 Initial guess orbital symmetries:
       Occupied  (SG) (SG) (SG) (SG) (SG) (SG) (SG) (PI) (PI) (PI)
                 (PI)
       Virtual   (?A) (?A) (?A) (SG) (PI) (PI) (SG) (SG) (PI) (PI)
                 (SG) (DLTA) (DLTA) (PI) (PI) (PI) (PI) (SG) (SG)
                 (SG) (DLTA) (DLTA) (DLTA) (DLTA) (SG) (PI) (PI)
                 (SG) (PI) (PI) (PI) (PI) (SG) (SG) (PHI) (PHI)
                 (DLTA) (DLTA) (DLTA) (DLTA) (PI) (PI) (PI) (PI)
                 (SG) (SG) (PI) (PI) (PI) (PI) (SG) (SG) (PHI)
                 (PHI) (PHI) (PHI) (DLTA) (DLTA) (DLTA) (DLTA)
                 (SG) (PI) (PI) (DLTA) (DLTA) (DLTA) (DLTA) (PI)
                 (PI) (SG) (SG) (PI) (PI) (SG) (PI) (PI) (SG) (SG)
                 (SG)
 Keep R1 ints in memory in symmetry-blocked form, NReq=27000504.
 Requested convergence on RMS density matrix=1.00D-08 within 900 cycles.
 Requested convergence on MAX density matrix=1.00D-06.
 Requested convergence on             energy=1.00D-06.
 No special actions if energy rises.
 An orbital has undefined symmetry, so N**3 symmetry is turned off.
 Density matrix breaks symmetry, PCut= 1.00D-04
 Density matrix has no symmetry -- integrals replicated.
 SCF Done:  E(RM062X) =  -188.591596501     A.U. after    7 cycles
            NFock=  7  Conv=0.87D-08     -V/T= 2.0047
 Calling FoFJK, ICntrl=      2127 FMM=F ISym2X=1 I1Cent= 0 IOpClX= 0 NMat=1 NMatS=1 NMatT=0.
 ***** Axes restored to original set *****
 -------------------------------------------------------------------
 Center     Atomic                   Forces (Hartrees/Bohr)
 Number     Number              X              Y              Z
 -------------------------------------------------------------------
      1        8           0.000017838    0.000010988   -0.000000560
      2        6          -0.000260702   -0.000160589    0.000008187
      3        8           0.000242864    0.000149600   -0.000007627
 -------------------------------------------------------------------
 Cartesian Forces:  Max     0.000260702 RMS     0.000139715

 GradGradGradGradGradGradGradGradGradGradGradGradGradGradGradGradGradGrad
 Berny optimization.
 Using GDIIS optimizer.
 Bend failed for angle     1 -     2 -     3
 FormBX had a problem.
 Error termination via Lnk1e in /shared/centos7/gaussian/g16/l103.exe at Tue Apr  2 10:02:12 2019.
 Job cpu time:       0 days  0 hours 10 minutes 13.2 seconds.
 Elapsed time:       0 days  0 hours  0 minutes 33.6 seconds.
 File lengths (MBytes):  RWF=    272 Int=      0 D2E=      0 Chk=     32 Scr=     32
