 Entering Gaussian System, Link 0=g16
 Input=nateC#C[C]=C.com
 Output=nateC#C[C]=C.log
 Initial command:
 /shared/centos7/gaussian/g16/l1.exe "/scratch/dinius.ab/QMscratch/Gau-15920.inp" -scrdir="/scratch/dinius.ab/QMscratch/"
 Default is to use a total of  20 processors:
                               20 via shared-memory
                                1 via Linda
 Entering Link 1 = /shared/centos7/gaussian/g16/l1.exe PID=     15921.
  
 Copyright (c) 1988,1990,1992,1993,1995,1998,2003,2009,2016,
            Gaussian, Inc.  All Rights Reserved.
  
 This is part of the Gaussian(R) 16 program.  It is based on
 the Gaussian(R) 09 system (copyright 2009, Gaussian, Inc.),
 the Gaussian(R) 03 system (copyright 2003, Gaussian, Inc.),
 the Gaussian(R) 98 system (copyright 1998, Gaussian, Inc.),
 the Gaussian(R) 94 system (copyright 1995, Gaussian, Inc.),
 the Gaussian 92(TM) system (copyright 1992, Gaussian, Inc.),
 the Gaussian 90(TM) system (copyright 1990, Gaussian, Inc.),
 the Gaussian 88(TM) system (copyright 1988, Gaussian, Inc.),
 the Gaussian 86(TM) system (copyright 1986, Carnegie Mellon
 University), and the Gaussian 82(TM) system (copyright 1983,
 Carnegie Mellon University). Gaussian is a federally registered
 trademark of Gaussian, Inc.
  
 This software contains proprietary and confidential information,
 including trade secrets, belonging to Gaussian, Inc.
  
 This software is provided under written license and may be
 used, copied, transmitted, or stored only in accord with that
 written license.
  
 The following legend is applicable only to US Government
 contracts under FAR:
  
                    RESTRICTED RIGHTS LEGEND
  
 Use, reproduction and disclosure by the US Government is
 subject to restrictions as set forth in subparagraphs (a)
 and (c) of the Commercial Computer Software - Restricted
 Rights clause in FAR 52.227-19.
  
 Gaussian, Inc.
 340 Quinnipiac St., Bldg. 40, Wallingford CT 06492
  
  
 ---------------------------------------------------------------
 Warning -- This program may not be used in any manner that
 competes with the business of Gaussian, Inc. or will provide
 assistance to any competitor of Gaussian, Inc.  The licensee
 of this program is prohibited from giving any competitor of
 Gaussian, Inc. access to this program.  By using this program,
 the user acknowledges that Gaussian, Inc. is engaged in the
 business of creating and licensing software in the field of
 computational chemistry and represents and warrants to the
 licensee that it is not a competitor of Gaussian, Inc. and that
 it will not use this program in any manner prohibited above.
 ---------------------------------------------------------------
  

 Cite this work as:
 Gaussian 16, Revision A.03,
 M. J. Frisch, G. W. Trucks, H. B. Schlegel, G. E. Scuseria, 
 M. A. Robb, J. R. Cheeseman, G. Scalmani, V. Barone, 
 G. A. Petersson, H. Nakatsuji, X. Li, M. Caricato, A. V. Marenich, 
 J. Bloino, B. G. Janesko, R. Gomperts, B. Mennucci, H. P. Hratchian, 
 J. V. Ortiz, A. F. Izmaylov, J. L. Sonnenberg, D. Williams-Young, 
 F. Ding, F. Lipparini, F. Egidi, J. Goings, B. Peng, A. Petrone, 
 T. Henderson, D. Ranasinghe, V. G. Zakrzewski, J. Gao, N. Rega, 
 G. Zheng, W. Liang, M. Hada, M. Ehara, K. Toyota, R. Fukuda, 
 J. Hasegawa, M. Ishida, T. Nakajima, Y. Honda, O. Kitao, H. Nakai, 
 T. Vreven, K. Throssell, J. A. Montgomery, Jr., J. E. Peralta, 
 F. Ogliaro, M. J. Bearpark, J. J. Heyd, E. N. Brothers, K. N. Kudin, 
 V. N. Staroverov, T. A. Keith, R. Kobayashi, J. Normand, 
 K. Raghavachari, A. P. Rendell, J. C. Burant, S. S. Iyengar, 
 J. Tomasi, M. Cossi, J. M. Millam, M. Klene, C. Adamo, R. Cammi, 
 J. W. Ochterski, R. L. Martin, K. Morokuma, O. Farkas, 
 J. B. Foresman, and D. J. Fox, Gaussian, Inc., Wallingford CT, 2016.
 
 ******************************************
 Gaussian 16:  EM64L-G16RevA.03 25-Dec-2016
                 2-Apr-2019 
 ******************************************
 ----------------------------------------------------------------------
 #m062x/cc-pVTZ Opt=(calcfc,verytight,gdiis,maxcycles=900) freq IOP(2/1
 6=3) scf=(maxcycle=900)
 ----------------------------------------------------------------------

 Warning!  Use of Opt=GDIIS is deprecated since it is seldom a good choice.

 1/6=900,7=1,10=4,18=20,19=11,26=3,38=1/1,3;
 2/9=110,12=2,16=3,17=6,18=5,40=1/2;
 3/5=16,6=1,11=2,25=1,30=1,71=2,74=-55,140=1/1,2,3;
 4//1;
 5/5=2,7=900,38=5/2;
 8/6=4,10=90,11=11/1;
 11/6=1,8=1,9=11,15=111,16=1/1,2,10;
 10/6=1,13=1/2;
 6/7=2,8=2,9=2,10=2,28=1/1;
 7/10=1,18=20,25=1/1,2,3,16;
 1/6=900,7=1,10=4,18=20,19=11,26=3/3(2);
 2/9=110,16=3/2;
 99//99;
 2/9=110,16=3/2;
 3/5=16,6=1,11=2,25=1,30=1,71=1,74=-55/1,2,3;
 4/5=5,16=3,69=1/1;
 5/5=2,7=900,38=5/2;
 7//1,2,3,16;
 1/6=900,7=1,18=20,19=11,26=3/3(-5);
 2/9=110,16=3/2;
 6/7=2,8=2,9=2,10=2,19=2,28=1/1;
 99/9=1/99;
 -----
 Title
 -----
 Symbolic Z-matrix:
 Charge =  0 Multiplicity = 1
 C                    -5.94477  -1.13905   0. 
 C                    -5.22751  -0.05806   0. 
 H                    -6.53172  -2.02831   0. 
 H                    -5.68725   0.92324   0. 
 C                    -3.81709  -0.18231   0. 
 C                    -2.52303  -0.28662   0. 
 H                    -1.89757   0.59824   0. 
 H                    -2.0484   -1.26087   0. 
 

 GradGradGradGradGradGradGradGradGradGradGradGradGradGradGradGradGradGrad
 Berny optimization.
 Initialization pass.
                           ----------------------------
                           !    Initial Parameters    !
                           ! (Angstroms and Degrees)  !
 --------------------------                            --------------------------
 ! Name  Definition              Value          Derivative Info.                !
 --------------------------------------------------------------------------------
 ! R1    R(1,2)                  1.2973         calculate D2E/DX2 analytically  !
 ! R2    R(1,3)                  1.0655         calculate D2E/DX2 analytically  !
 ! R3    R(2,4)                  1.0837         calculate D2E/DX2 analytically  !
 ! R4    R(2,5)                  1.4159         calculate D2E/DX2 analytically  !
 ! R5    R(5,6)                  1.2983         calculate D2E/DX2 analytically  !
 ! R6    R(6,7)                  1.0836         calculate D2E/DX2 analytically  !
 ! R7    R(6,8)                  1.0837         calculate D2E/DX2 analytically  !
 ! A1    A(1,2,4)              121.3317         calculate D2E/DX2 analytically  !
 ! A2    A(1,2,5)              118.5307         calculate D2E/DX2 analytically  !
 ! A3    A(4,2,5)              120.1376         calculate D2E/DX2 analytically  !
 ! A4    A(5,6,7)              120.646          calculate D2E/DX2 analytically  !
 ! A5    A(5,6,8)              120.5826         calculate D2E/DX2 analytically  !
 ! A6    A(7,6,8)              118.7714         calculate D2E/DX2 analytically  !
 ! A7    L(2,1,3,8,-1)         179.8614         calculate D2E/DX2 analytically  !
 ! A8    L(2,5,6,3,-1)         180.426          calculate D2E/DX2 analytically  !
 ! A9    L(2,1,3,8,-2)         180.0            calculate D2E/DX2 analytically  !
 ! A10   L(2,5,6,3,-2)         180.0            calculate D2E/DX2 analytically  !
 ! D1    D(1,2,6,7)            180.0            calculate D2E/DX2 analytically  !
 ! D2    D(1,2,6,8)              0.0            calculate D2E/DX2 analytically  !
 ! D3    D(4,2,6,7)              0.0            calculate D2E/DX2 analytically  !
 ! D4    D(4,2,6,8)            180.0            calculate D2E/DX2 analytically  !
 --------------------------------------------------------------------------------
 Trust Radius=3.00D-01 FncErr=1.00D-07 GrdErr=1.00D-06 EigMax=2.50D+02 EigMin=1.00D-04
 Number of steps in this run=    100 maximum allowed number of steps=    100.
 GradGradGradGradGradGradGradGradGradGradGradGradGradGradGradGradGradGrad

                          Input orientation:                          
 ---------------------------------------------------------------------
 Center     Atomic      Atomic             Coordinates (Angstroms)
 Number     Number       Type             X           Y           Z
 ---------------------------------------------------------------------
      1          6           0       -5.944770   -1.139050    0.000000
      2          6           0       -5.227510   -0.058060    0.000000
      3          1           0       -6.531720   -2.028310    0.000000
      4          1           0       -5.687250    0.923240    0.000000
      5          6           0       -3.817090   -0.182310    0.000000
      6          6           0       -2.523030   -0.286620    0.000000
      7          1           0       -1.897570    0.598240    0.000000
      8          1           0       -2.048400   -1.260870    0.000000
 ---------------------------------------------------------------------
                    Distance matrix (angstroms):
                    1          2          3          4          5
     1  C    0.000000
     2  C    1.297305   0.000000
     3  H    1.065502   2.362805   0.000000
     4  H    2.078306   1.083656   3.069980   0.000000
     5  C    2.332890   1.415882   3.282824   2.172496   0.000000
     6  C    3.526321   2.714121   4.370707   3.387632   1.298257
     7  H    4.404317   3.393999   5.326736   3.803590   2.072152
     8  H    3.898274   3.399043   4.548530   4.244004   2.071607
                    6          7          8
     6  C    0.000000
     7  H    1.083595   0.000000
     8  H    1.083714   1.865218   0.000000
 Stoichiometry    C4H4
 Framework group  CS[SG(C4H4)]
 Deg. of freedom    13
 Full point group                 CS      NOp   2
 Largest Abelian subgroup         CS      NOp   2
 Largest concise Abelian subgroup C1      NOp   1
                         Standard orientation:                         
 ---------------------------------------------------------------------
 Center     Atomic      Atomic             Coordinates (Angstroms)
 Number     Number       Type             X           Y           Z
 ---------------------------------------------------------------------
      1          6           0        0.027114   -1.767386    0.000000
      2          6           0        0.706059   -0.661929   -0.000000
      3          1           0       -0.532711   -2.673968    0.000000
      4          1           0        1.789706   -0.666194   -0.000000
      5          6           0        0.000000    0.565346   -0.000000
      6          6           0       -0.639018    1.695446    0.000000
      7          1           0       -0.099386    2.635113   -0.000000
      8          1           0       -1.722534    1.716185    0.000000
 ---------------------------------------------------------------------
 Rotational constants (GHZ):          43.0509894           4.8439283           4.3540300
 Standard basis: CC-pVTZ (5D, 7F)
 There are   140 symmetry adapted cartesian basis functions of A'  symmetry.
 There are    60 symmetry adapted cartesian basis functions of A"  symmetry.
 There are   120 symmetry adapted basis functions of A'  symmetry.
 There are    56 symmetry adapted basis functions of A"  symmetry.
   176 basis functions,   276 primitive gaussians,   200 cartesian basis functions
    14 alpha electrons       14 beta electrons
       nuclear repulsion energy        89.5395367260 Hartrees.
 NAtoms=    8 NActive=    8 NUniq=    8 SFac= 1.00D+00 NAtFMM=   60 NAOKFM=F Big=F
 Integral buffers will be    131072 words long.
 Raffenetti 2 integral format.
 Two-electron integral symmetry is turned on.
 One-electron integrals computed using PRISM.
 NBasis=   176 RedAO= T EigKep=  1.50D-04  NBF=   120    56
 NBsUse=   176 1.00D-06 EigRej= -1.00D+00 NBFU=   120    56
 ExpMin= 1.03D-01 ExpMax= 8.24D+03 ExpMxC= 2.81D+02 IAcc=3 IRadAn=         5 AccDes= 0.00D+00
 Harris functional with IExCor= 1009 and IRadAn=       5 diagonalized for initial guess.
 HarFok:  IExCor= 1009 AccDes= 0.00D+00 IRadAn=         5 IDoV= 1 UseB2=F ITyADJ=14
 ICtDFT=  3500011 ScaDFX=  1.000000  1.000000  1.000000  1.000000
 FoFCou: FMM=F IPFlag=           0 FMFlag=      100000 FMFlg1=           0
         NFxFlg=           0 DoJE=T BraDBF=F KetDBF=T FulRan=T
         wScrn=  0.000000 ICntrl=       500 IOpCl=  0 I1Cent=   200000004 NGrid=           0
         NMat0=    1 NMatS0=      1 NMatT0=    0 NMatD0=    1 NMtDS0=    0 NMtDT0=    0
 Petite list used in FoFCou.
 Initial guess orbital symmetries:
       Occupied  (A') (A') (A') (A') (A') (A') (A') (A') (A') (A')
                 (A') (A") (A") (A')
       Virtual   (A') (A") (A") (A') (A') (A') (A') (A') (A') (A')
                 (A') (A") (A') (A") (A') (A') (A") (A') (A') (A")
                 (A') (A') (A') (A") (A') (A') (A") (A') (A") (A')
                 (A') (A') (A') (A") (A') (A") (A') (A') (A') (A")
                 (A') (A") (A') (A") (A') (A') (A") (A') (A') (A")
                 (A') (A') (A") (A') (A') (A') (A") (A') (A') (A')
                 (A') (A') (A") (A") (A') (A') (A") (A') (A') (A")
                 (A') (A') (A') (A') (A') (A") (A') (A") (A') (A')
                 (A") (A") (A") (A') (A") (A') (A') (A") (A") (A')
                 (A') (A") (A') (A") (A') (A") (A') (A") (A') (A")
                 (A') (A') (A') (A') (A") (A") (A') (A") (A') (A")
                 (A') (A') (A') (A') (A") (A') (A") (A') (A') (A")
                 (A') (A') (A") (A') (A") (A') (A") (A') (A') (A")
                 (A') (A') (A") (A') (A") (A') (A") (A') (A') (A")
                 (A') (A') (A") (A') (A') (A") (A") (A') (A') (A')
                 (A') (A') (A") (A') (A') (A') (A') (A') (A') (A')
                 (A') (A')
 The electronic state of the initial guess is 1-A'.
 Keep R1 ints in memory in symmetry-blocked form, NReq=183150043.
 Requested convergence on RMS density matrix=1.00D-08 within 900 cycles.
 Requested convergence on MAX density matrix=1.00D-06.
 Requested convergence on             energy=1.00D-06.
 No special actions if energy rises.
 Integral accuracy reduced to 1.0D-05 until final iterations.
 Initial convergence to 1.0D-05 achieved.  Increase integral accuracy.
 SCF Done:  E(RM062X) =  -154.558476888     A.U. after   18 cycles
            NFock= 18  Conv=0.88D-08     -V/T= 2.0063
 DoSCS=F DFT=T ScalE2(SS,OS)=  1.000000  1.000000
 Range of M.O.s used for correlation:     1   176
 NBasis=   176 NAE=    14 NBE=    14 NFC=     0 NFV=     0
 NROrb=    176 NOA=    14 NOB=    14 NVA=   162 NVB=   162

 **** Warning!!: The largest alpha MO coefficient is  0.18957944D+02

 Symmetrizing basis deriv contribution to polar:
 IMax=3 JMax=2 DiffMx= 0.00D+00
 G2DrvN: will do     9 centers at a time, making    1 passes.
 Calling FoFCou, ICntrl=  3107 FMM=F I1Cent=   0 AccDes= 0.00D+00.
 End of G2Drv F.D. properties file   721 does not exist.
 End of G2Drv F.D. properties file   722 does not exist.
 End of G2Drv F.D. properties file   788 does not exist.
          IDoAtm=11111111
          Differentiating once with respect to nuclear coordinates.
 Keep R1 ints in memory in symmetry-blocked form, NReq=183153762.
          There are    27 degrees of freedom in the 1st order CPHF.  IDoFFX=6 NUNeed=     0.
     21 vectors produced by pass  0 Test12= 8.40D-15 3.70D-09 XBig12= 1.45D-01 2.24D-01.
 AX will form    21 AO Fock derivatives at one time.
     21 vectors produced by pass  1 Test12= 8.40D-15 3.70D-09 XBig12= 5.15D-02 6.52D-02.
     21 vectors produced by pass  2 Test12= 8.40D-15 3.70D-09 XBig12= 1.10D-03 8.59D-03.
     21 vectors produced by pass  3 Test12= 8.40D-15 3.70D-09 XBig12= 8.79D-06 7.86D-04.
     21 vectors produced by pass  4 Test12= 8.40D-15 3.70D-09 XBig12= 5.03D-08 3.93D-05.
     21 vectors produced by pass  5 Test12= 8.40D-15 3.70D-09 XBig12= 2.68D-10 2.58D-06.
     19 vectors produced by pass  6 Test12= 8.40D-15 3.70D-09 XBig12= 1.21D-12 1.47D-07.
      5 vectors produced by pass  7 Test12= 8.40D-15 3.70D-09 XBig12= 4.75D-15 9.72D-09.
 InvSVY:  IOpt=1 It=  1 EMax= 8.88D-16
 Solved reduced A of dimension   150 with    21 vectors.
 End of Minotr F.D. properties file   721 does not exist.
 End of Minotr F.D. properties file   722 does not exist.
 End of Minotr F.D. properties file   788 does not exist.

 **********************************************************************

            Population analysis using the SCF density.

 **********************************************************************

 Orbital symmetries:
       Occupied  (A') (A') (A') (A') (A') (A') (A') (A') (A') (A')
                 (A') (A") (A") (A')
       Virtual   (A') (A") (A') (A') (A') (A") (A') (A') (A') (A')
                 (A') (A") (A') (A") (A') (A') (A") (A') (A') (A")
                 (A') (A') (A') (A') (A") (A') (A") (A') (A') (A")
                 (A') (A') (A') (A") (A') (A") (A') (A') (A') (A")
                 (A") (A') (A') (A") (A') (A') (A") (A') (A') (A")
                 (A') (A') (A') (A") (A') (A") (A') (A') (A') (A')
                 (A') (A') (A") (A") (A') (A') (A") (A') (A') (A")
                 (A') (A') (A') (A') (A') (A") (A') (A") (A') (A")
                 (A") (A') (A") (A') (A') (A") (A") (A') (A") (A')
                 (A") (A') (A') (A") (A') (A") (A') (A") (A') (A")
                 (A') (A') (A') (A") (A') (A") (A') (A") (A') (A")
                 (A') (A') (A') (A") (A') (A") (A') (A') (A") (A')
                 (A') (A") (A') (A') (A") (A") (A') (A') (A") (A')
                 (A') (A") (A') (A') (A") (A') (A") (A') (A') (A")
                 (A') (A") (A') (A') (A') (A") (A") (A') (A') (A')
                 (A') (A') (A") (A') (A') (A') (A') (A') (A') (A')
                 (A') (A')
 The electronic state is 1-A'.
 Alpha  occ. eigenvalues --  -10.60027 -10.57362 -10.56998 -10.55970  -0.92046
 Alpha  occ. eigenvalues --   -0.84844  -0.69383  -0.60751  -0.54961  -0.53400
 Alpha  occ. eigenvalues --   -0.51270  -0.41772  -0.31130  -0.21956
 Alpha virt. eigenvalues --   -0.05986  -0.00822   0.08588   0.09935   0.12196
 Alpha virt. eigenvalues --    0.12581   0.13823   0.20856   0.24143   0.28418
 Alpha virt. eigenvalues --    0.30562   0.31170   0.34476   0.36625   0.38153
 Alpha virt. eigenvalues --    0.41040   0.42286   0.43154   0.46589   0.47201
 Alpha virt. eigenvalues --    0.47801   0.50427   0.50994   0.54817   0.54921
 Alpha virt. eigenvalues --    0.57034   0.64178   0.66280   0.68243   0.69565
 Alpha virt. eigenvalues --    0.72012   0.73688   0.78770   0.80308   0.82623
 Alpha virt. eigenvalues --    0.86629   0.92193   0.92958   0.94358   0.95450
 Alpha virt. eigenvalues --    1.03724   1.05175   1.10813   1.12318   1.14002
 Alpha virt. eigenvalues --    1.18859   1.19623   1.26289   1.26805   1.31787
 Alpha virt. eigenvalues --    1.34309   1.34622   1.40147   1.42118   1.43718
 Alpha virt. eigenvalues --    1.48485   1.48797   1.53358   1.56736   1.66142
 Alpha virt. eigenvalues --    1.78941   1.93429   2.01470   2.13152   2.14452
 Alpha virt. eigenvalues --    2.18022   2.25777   2.28305   2.31118   2.33389
 Alpha virt. eigenvalues --    2.34021   2.43028   2.47703   2.48814   2.52865
 Alpha virt. eigenvalues --    2.53692   2.56327   2.57332   2.57467   2.65207
 Alpha virt. eigenvalues --    2.65725   2.66412   2.70133   2.74060   2.75640
 Alpha virt. eigenvalues --    2.77708   2.81322   2.81461   2.83430   2.84740
 Alpha virt. eigenvalues --    2.89344   2.89385   2.93449   2.94295   2.98544
 Alpha virt. eigenvalues --    2.99017   3.03137   3.03799   3.06072   3.09221
 Alpha virt. eigenvalues --    3.09455   3.12214   3.16657   3.19543   3.19660
 Alpha virt. eigenvalues --    3.20595   3.28782   3.30931   3.36105   3.36605
 Alpha virt. eigenvalues --    3.42445   3.43816   3.50868   3.51430   3.53263
 Alpha virt. eigenvalues --    3.63443   3.64985   3.66919   3.68021   3.69746
 Alpha virt. eigenvalues --    3.76560   3.78891   3.81578   3.86361   3.86996
 Alpha virt. eigenvalues --    3.94285   3.94327   4.00312   4.01462   4.03490
 Alpha virt. eigenvalues --    4.09911   4.17736   4.18961   4.26545   4.29437
 Alpha virt. eigenvalues --    4.37159   4.53839   4.59666   4.62343   4.73802
 Alpha virt. eigenvalues --    4.81389   4.85916   4.86689   4.88795   4.92528
 Alpha virt. eigenvalues --    4.98478   5.05729   5.08623   5.18146   5.25947
 Alpha virt. eigenvalues --    5.36087   5.46543   5.48402   5.61355   5.84317
 Alpha virt. eigenvalues --    5.94135   6.17613   6.22111   8.81516  10.82209
 Alpha virt. eigenvalues --   14.03730  14.68819
          Condensed to atoms (all electrons):
               1          2          3          4          5          6
     1  C    5.393219   0.511472   0.414681  -0.087828   0.076321   0.008247
     2  C    0.511472   4.779069  -0.046335   0.392183   0.385993  -0.045990
     3  H    0.414681  -0.046335   0.442019   0.004125   0.006955   0.000290
     4  H   -0.087828   0.392183   0.004125   0.676947  -0.096058   0.004536
     5  C    0.076321   0.385993   0.006955  -0.096058   5.123817   0.605632
     6  C    0.008247  -0.045990   0.000290   0.004536   0.605632   4.963584
     7  H    0.003545  -0.006654   0.000053   0.002812  -0.089890   0.408303
     8  H   -0.008520   0.009579  -0.000146  -0.001070  -0.057533   0.397505
               7          8
     1  C    0.003545  -0.008520
     2  C   -0.006654   0.009579
     3  H    0.000053  -0.000146
     4  H    0.002812  -0.001070
     5  C   -0.089890  -0.057533
     6  C    0.408303   0.397505
     7  H    0.570515  -0.041926
     8  H   -0.041926   0.550266
 Mulliken charges:
               1
     1  C   -0.311137
     2  C    0.020684
     3  H    0.178357
     4  H    0.104352
     5  C    0.044762
     6  C   -0.342107
     7  H    0.153243
     8  H    0.151845
 Sum of Mulliken charges =  -0.00000
 Mulliken charges with hydrogens summed into heavy atoms:
               1
     1  C   -0.132779
     2  C    0.125036
     5  C    0.044762
     6  C   -0.037019
 APT charges:
               1
     1  C   -0.416580
     2  C   -0.618941
     3  H    0.638270
     4  H    0.345309
     5  C   -0.102324
     6  C   -0.647415
     7  H    0.441997
     8  H    0.359684
 Sum of APT charges =  -0.00000
 APT charges with hydrogens summed into heavy atoms:
               1
     1  C    0.221690
     2  C   -0.273632
     5  C   -0.102324
     6  C    0.154266
 Electronic spatial extent (au):  <R**2>=            301.7181
 Charge=              0.0000 electrons
 Dipole moment (field-independent basis, Debye):
    X=             -0.4549    Y=              0.5316    Z=              0.0000  Tot=              0.6997
 Quadrupole moment (field-independent basis, Debye-Ang):
   XX=            -23.8853   YY=            -18.9608   ZZ=            -27.0956
   XY=              0.7057   XZ=              0.0000   YZ=             -0.0000
 Traceless Quadrupole moment (field-independent basis, Debye-Ang):
   XX=             -0.5714   YY=              4.3531   ZZ=             -3.7817
   XY=              0.7057   XZ=              0.0000   YZ=             -0.0000
 Octapole moment (field-independent basis, Debye-Ang**2):
  XXX=             -1.8512  YYY=             -0.8516  ZZZ=              0.0000  XYY=             -6.0560
  XXY=              3.1928  XXZ=              0.0000  XZZ=              0.2362  YZZ=              0.0729
  YYZ=              0.0000  XYZ=             -0.0000
 Hexadecapole moment (field-independent basis, Debye-Ang**3):
 XXXX=            -80.2537 YYYY=           -260.5028 ZZZZ=            -31.6251 XXXY=             26.8434
 XXXZ=              0.0000 YYYX=             47.9652 YYYZ=             -0.0000 ZZZX=              0.0000
 ZZZY=             -0.0000 XXYY=            -64.8963 XXZZ=            -20.8711 YYZZ=            -64.1797
 XXYZ=             -0.0000 YYXZ=              0.0000 ZZXY=             12.3682
 N-N= 8.953953672597D+01 E-N=-5.368277104680D+02  KE= 1.535933797751D+02
 Symmetry A'   KE= 1.492703352310D+02
 Symmetry A"   KE= 4.323044544031D+00
  Exact polarizability:   0.000   0.000   0.000   0.000   0.000   0.000
 Approx polarizability:  52.265 -11.771 201.204  -0.000   0.000  31.904
 Calling FoFJK, ICntrl=    100147 FMM=F ISym2X=1 I1Cent= 0 IOpClX= 0 NMat=1 NMatS=1 NMatT=0.
 ***** Axes restored to original set *****
 -------------------------------------------------------------------
 Center     Atomic                   Forces (Hartrees/Bohr)
 Number     Number              X              Y              Z
 -------------------------------------------------------------------
      1        6           0.044331879   -0.015559887    0.000000000
      2        6          -0.028334944    0.043790714   -0.000000000
      3        1           0.007538054   -0.004090852    0.000000000
      4        1          -0.001418040    0.015259669   -0.000000000
      5        6          -0.016290673   -0.021969780    0.000000000
      6        6          -0.013042442   -0.020231638    0.000000000
      7        1           0.000516705    0.002710076   -0.000000000
      8        1           0.006699462    0.000091697    0.000000000
 -------------------------------------------------------------------
 Cartesian Forces:  Max     0.044331879 RMS     0.016603628
 FormGI is forming the generalized inverse of G from B-inverse, IUseBI=4.

 GradGradGradGradGradGradGradGradGradGradGradGradGradGradGradGradGradGrad
 Berny optimization.
 Internal  Forces:  Max     0.096332973 RMS     0.027583692
 Search for a local minimum.
 Step number   1 out of a maximum of  100
 All quantities printed in internal units (Hartrees-Bohrs-Radians)
 Swapping is turned off.
 Second derivative matrix not updated -- analytic derivatives used.
 ITU=  0
     Eigenvalues ---   -0.05438  -0.00698  -0.00673   0.02920   0.03558
     Eigenvalues ---    0.05158   0.06111   0.06524   0.09066   0.09899
     Eigenvalues ---    0.15702   0.32422   0.35222   0.35770   0.39504
     Eigenvalues ---    0.41015   0.67557   0.70626
 Eigenvalue     1 is  -5.44D-02 should be greater than     0.000000 Eigenvector:
                          A7        A8        A2        A3        A1
   1                   -0.80996  -0.36977   0.36250  -0.18356  -0.17894
                          R4        R1        A5        R3        A4
   1                    0.08542   0.04390   0.01713  -0.01420  -0.01091
 Eigenvalue     2 is  -6.98D-03 should be greater than     0.000000 Eigenvector:
                          A8        A7        A2        A3        R4
   1                    0.68062  -0.54575  -0.31722   0.28201  -0.23052
                          R1        A1        R5        R7        A5
   1                    0.06172   0.03521   0.01378  -0.01105  -0.01019
 Eigenvalue     3 is  -6.73D-03 should be greater than     0.000000 Eigenvector:
                          D4        D3        D2        D1        A10
   1                   -0.61665  -0.58459  -0.36750  -0.33544   0.15110
                          A9        A8        A7        A2        A3
   1                    0.08712   0.00000  -0.00000  -0.00000   0.00000
 Quadratic step=5.652D+00 exceeds max=3.000D-01 adjusted using Lamda=-3.522D-01.
 Angle between NR and scaled steps=  51.65 degrees.
 Angle between quadratic step and forces=   6.29 degrees.
 Linear search not attempted -- option 19 set.
 Iteration  1 RMS(Cart)=  0.20072200 RMS(Int)=  0.01447758
 Iteration  2 RMS(Cart)=  0.03639911 RMS(Int)=  0.00026431
 Iteration  3 RMS(Cart)=  0.00041199 RMS(Int)=  0.00000006
 Iteration  4 RMS(Cart)=  0.00000012 RMS(Int)=  0.00000000
 ClnCor:  largest displacement from symmetrization is 3.24D-09 for atom     1.
 Variable       Old X    -DE/DX   Delta X   Delta X   Delta X     New X
                                 (Linear)    (Quad)   (Total)
    R1        2.45155  -0.01230   0.00000  -0.02168  -0.02168   2.42987
    R2        2.01351  -0.00074   0.00000  -0.00108  -0.00108   2.01243
    R3        2.04781   0.01442   0.00000   0.01283   0.01283   2.06064
    R4        2.67563  -0.01858   0.00000  -0.04126  -0.04126   2.63437
    R5        2.45335  -0.00441   0.00000   0.00249   0.00249   2.45584
    R6        2.04770   0.00251   0.00000   0.00230   0.00230   2.05000
    R7        2.04792   0.00285   0.00000   0.00091   0.00091   2.04883
    A1        2.11764   0.05348   0.00000   0.12215   0.12215   2.23979
    A2        2.06875  -0.09633   0.00000  -0.23409  -0.23409   1.83466
    A3        2.09680   0.04285   0.00000   0.11194   0.11194   2.20873
    A4        2.10567  -0.00570   0.00000  -0.01045  -0.01045   2.09522
    A5        2.10456   0.00906   0.00000   0.01743   0.01743   2.12199
    A6        2.07295  -0.00336   0.00000  -0.00698  -0.00698   2.06597
    A7        3.13917  -0.01721   0.00000  -0.04593  -0.04593   3.09324
    A8        3.14903  -0.02900   0.00000  -0.05711  -0.05711   3.09192
    A9        3.14159   0.00000   0.00000  -0.00000   0.00000   3.14159
   A10        3.14159  -0.00000   0.00000   0.00000   0.00000   3.14159
    D1        3.14159   0.00000   0.00000  -0.00000   0.00000   3.14159
    D2       -0.00000   0.00000   0.00000  -0.00000   0.00000   0.00000
    D3       -0.00000  -0.00000   0.00000  -0.00000   0.00000   0.00000
    D4        3.14159  -0.00000   0.00000  -0.00000   0.00000   3.14159
         Item               Value     Threshold  Converged?
 Maximum Force            0.096333     0.000002     NO 
 RMS     Force            0.027584     0.000001     NO 
 Maximum Displacement     0.722529     0.000006     NO 
 RMS     Displacement     0.231826     0.000004     NO 
 Predicted change in Energy=-3.518388D-02
 GradGradGradGradGradGradGradGradGradGradGradGradGradGradGradGradGradGrad

                          Input orientation:                          
 ---------------------------------------------------------------------
 Center     Atomic      Atomic             Coordinates (Angstroms)
 Number     Number       Type             X           Y           Z
 ---------------------------------------------------------------------
      1          6           0       -5.781127   -1.101349    0.000000
      2          6           0       -5.278701    0.082260   -0.000000
      3          1           0       -6.149374   -2.100584    0.000000
      4          1           0       -5.801838    1.039025   -0.000000
      5          6           0       -3.897825   -0.108917   -0.000000
      6          6           0       -2.620968   -0.350833    0.000000
      7          1           0       -1.912481    0.470666    0.000000
      8          1           0       -2.235026   -1.364009    0.000000
 ---------------------------------------------------------------------
                    Distance matrix (angstroms):
                    1          2          3          4          5
     1  C    0.000000
     2  C    1.285831   0.000000
     3  H    1.064931   2.350081   0.000000
     4  H    2.140474   1.090446   3.158786   0.000000
     5  C    2.128789   1.394046   3.006029   2.223294   0.000000
     6  C    3.248057   2.692789   3.938436   3.471260   1.299573
     7  H    4.175841   3.388554   4.956066   3.930666   2.068214
     8  H    3.555815   3.369815   3.983047   4.300782   2.083305
                    6          7          8
     6  C    0.000000
     7  H    1.084811   0.000000
     8  H    1.084194   1.862812   0.000000
 Stoichiometry    C4H4
 Framework group  CS[SG(C4H4)]
 Deg. of freedom    13
 Full point group                 CS      NOp   2
 Largest Abelian subgroup         CS      NOp   2
 Largest concise Abelian subgroup C1      NOp   1
                         Standard orientation:                         
 ---------------------------------------------------------------------
 Center     Atomic      Atomic             Coordinates (Angstroms)
 Number     Number       Type             X           Y           Z
 ---------------------------------------------------------------------
      1          6           0        0.157633   -1.599223   -0.000000
      2          6           0        0.894517   -0.545485   -0.000000
      3          1           0       -0.494123   -2.441417   -0.000000
      4          1           0        1.983083   -0.481473   -0.000000
      5          6           0       -0.000000    0.523722    0.000000
      6          6           0       -0.882358    1.477836    0.000000
      7          1           0       -0.561746    2.514187    0.000000
      8          1           0       -1.945972    1.267598    0.000000
 ---------------------------------------------------------------------
 Rotational constants (GHZ):          33.7506587           5.5799691           4.7883200
 Standard basis: CC-pVTZ (5D, 7F)
 There are   140 symmetry adapted cartesian basis functions of A'  symmetry.
 There are    60 symmetry adapted cartesian basis functions of A"  symmetry.
 There are   120 symmetry adapted basis functions of A'  symmetry.
 There are    56 symmetry adapted basis functions of A"  symmetry.
   176 basis functions,   276 primitive gaussians,   200 cartesian basis functions
    14 alpha electrons       14 beta electrons
       nuclear repulsion energy        91.3574457622 Hartrees.
 NAtoms=    8 NActive=    8 NUniq=    8 SFac= 1.00D+00 NAtFMM=   60 NAOKFM=F Big=F
 Integral buffers will be    131072 words long.
 Raffenetti 2 integral format.
 Two-electron integral symmetry is turned on.
 One-electron integrals computed using PRISM.
 NBasis=   176 RedAO= T EigKep=  1.55D-04  NBF=   120    56
 NBsUse=   176 1.00D-06 EigRej= -1.00D+00 NBFU=   120    56
 Initial guess from the checkpoint file:  "/scratch/dinius.ab/QMscratch/Gau-15921.chk"
 B after Tr=    -0.000000    0.000000    0.000000
         Rot=    0.997811    0.000000   -0.000000   -0.066137 Ang=  -7.58 deg.
 Initial guess orbital symmetries:
       Occupied  (A') (A') (A') (A') (A') (A') (A') (A') (A') (A')
                 (A') (A") (A") (A')
       Virtual   (A') (A") (A') (A') (A') (A") (A') (A') (A') (A')
                 (A') (A") (A') (A") (A') (A') (A") (A') (A') (A")
                 (A') (A') (A') (A') (A") (A') (A") (A') (A') (A")
                 (A') (A') (A') (A") (A') (A") (A') (A') (A') (A")
                 (A") (A') (A') (A") (A') (A') (A") (A') (A') (A")
                 (A') (A') (A') (A") (A') (A") (A') (A') (A') (A')
                 (A') (A') (A") (A") (A') (A') (A") (A') (A') (A")
                 (A') (A') (A') (A') (A') (A") (A') (A") (A') (A")
                 (A") (A') (A") (A') (A') (A") (A") (A') (A") (A')
                 (A") (A') (A') (A") (A') (A") (A') (A") (A') (A")
                 (A') (A') (A') (A") (A') (A") (A') (A") (A') (A")
                 (A') (A') (A') (A") (A') (A") (A') (A') (A") (A')
                 (A') (A") (A') (A') (A") (A") (A') (A') (A") (A')
                 (A') (A") (A') (A') (A") (A') (A") (A') (A') (A")
                 (A') (A") (A') (A') (A') (A") (A") (A') (A') (A')
                 (A') (A') (A") (A') (A') (A') (A') (A') (A') (A')
                 (A') (A')
 ExpMin= 1.03D-01 ExpMax= 8.24D+03 ExpMxC= 2.81D+02 IAcc=2 IRadAn=         4 AccDes= 0.00D+00
 Harris functional with IExCor= 1009 and IRadAn=       4 diagonalized for initial guess.
 HarFok:  IExCor= 1009 AccDes= 0.00D+00 IRadAn=         4 IDoV= 1 UseB2=F ITyADJ=14
 ICtDFT=  3500011 ScaDFX=  1.000000  1.000000  1.000000  1.000000
 FoFCou: FMM=F IPFlag=           0 FMFlag=      100000 FMFlg1=           0
         NFxFlg=           0 DoJE=T BraDBF=F KetDBF=T FulRan=T
         wScrn=  0.000000 ICntrl=       500 IOpCl=  0 I1Cent=   200000004 NGrid=           0
         NMat0=    1 NMatS0=      1 NMatT0=    0 NMatD0=    1 NMtDS0=    0 NMtDT0=    0
 Petite list used in FoFCou.
 Keep R1 ints in memory in symmetry-blocked form, NReq=183150043.
 Requested convergence on RMS density matrix=1.00D-08 within 900 cycles.
 Requested convergence on MAX density matrix=1.00D-06.
 Requested convergence on             energy=1.00D-06.
 No special actions if energy rises.
 Integral accuracy reduced to 1.0D-05 until final iterations.
 Initial convergence to 1.0D-05 achieved.  Increase integral accuracy.
 SCF Done:  E(RM062X) =  -154.593567490     A.U. after   14 cycles
            NFock= 14  Conv=0.76D-08     -V/T= 2.0062
 Calling FoFJK, ICntrl=      2127 FMM=F ISym2X=1 I1Cent= 0 IOpClX= 0 NMat=1 NMatS=1 NMatT=0.
 ***** Axes restored to original set *****
 -------------------------------------------------------------------
 Center     Atomic                   Forces (Hartrees/Bohr)
 Number     Number              X              Y              Z
 -------------------------------------------------------------------
      1        6           0.044382523   -0.013211335   -0.000000000
      2        6          -0.030037461    0.050097620    0.000000000
      3        1           0.004344124   -0.000979195   -0.000000000
      4        1          -0.000531362    0.005400197   -0.000000000
      5        6          -0.018428392   -0.032203107    0.000000000
      6        6          -0.003974663   -0.011328200    0.000000000
      7        1           0.000318520    0.000945155   -0.000000000
      8        1           0.003926712    0.001278865   -0.000000000
 -------------------------------------------------------------------
 Cartesian Forces:  Max     0.050097620 RMS     0.017253579

 GradGradGradGradGradGradGradGradGradGradGradGradGradGradGradGradGradGrad
 Berny optimization.
 Using GDIIS optimizer.
 FormGI is forming the generalized inverse of G from B-inverse, IUseBI=4.
 Internal  Forces:  Max     0.086104638 RMS     0.023541960
 Search for a local minimum.
 Step number   2 out of a maximum of  100
 All quantities printed in internal units (Hartrees-Bohrs-Radians)
 Swapping is turned off.
 Update second derivatives using D2CorX and points    1    2
 DE= -3.51D-02 DEPred=-3.52D-02 R= 9.97D-01
 TightC=F SS=  1.41D+00  RLast= 3.01D-01 DXNew= 5.0454D-01 9.0216D-01
 Trust test= 9.97D-01 RLast= 3.01D-01 DXMaxT set to 5.05D-01
 ITU=  1  0
     Eigenvalues ---   -0.05081  -0.00673  -0.00673   0.02920   0.03558
     Eigenvalues ---    0.05158   0.06111   0.07608   0.09080   0.09933
     Eigenvalues ---    0.15460   0.32742   0.35203   0.35718   0.39774
     Eigenvalues ---    0.41017   0.67778   0.70966
 DIIS coeff's:      3.18301     -2.18301
 Cosine:  0.994 >  0.970
 Length:  1.100
 GDIIS step was calculated using  2 of the last  2 vectors.
 Maximum step size (   0.505) exceeded in Quadratic search.
    -- Step size scaled by   0.070
 Iteration  1 RMS(Cart)=  0.17099251 RMS(Int)=  0.02918174
 Iteration  2 RMS(Cart)=  0.05074903 RMS(Int)=  0.00133261
 Iteration  3 RMS(Cart)=  0.00216751 RMS(Int)=  0.00000030
 Iteration  4 RMS(Cart)=  0.00000040 RMS(Int)=  0.00000000
 ClnCor:  largest displacement from symmetrization is 6.09D-09 for atom     8.
 Variable       Old X    -DE/DX   Delta X   Delta X   Delta X     New X
                                 (Linear)    (Quad)   (Total)
    R1        2.42987  -0.00598  -0.00331   0.02178   0.01848   2.44834
    R2        2.01243  -0.00058  -0.00016   0.00264   0.00248   2.01490
    R3        2.06064   0.00499   0.00196  -0.00599  -0.00403   2.05661
    R4        2.63437  -0.01232  -0.00630  -0.11329  -0.11958   2.51479
    R5        2.45584   0.00196   0.00038   0.00993   0.01031   2.46614
    R6        2.05000   0.00092   0.00035   0.00138   0.00173   2.05173
    R7        2.04883   0.00020   0.00014  -0.00706  -0.00692   2.04190
    A1        2.23979   0.04524   0.01864   0.05284   0.07147   2.31127
    A2        1.83466  -0.08610  -0.03572  -0.21895  -0.25467   1.57999
    A3        2.20873   0.04086   0.01708   0.16611   0.18319   2.39192
    A4        2.09522  -0.00333  -0.00159   0.00320   0.00161   2.09683
    A5        2.12199   0.00589   0.00266  -0.00629  -0.00363   2.11837
    A6        2.06597  -0.00256  -0.00106   0.00308   0.00202   2.06799
    A7        3.09324  -0.00888  -0.00701  -0.20367  -0.21068   2.88256
    A8        3.09192  -0.01262  -0.00871   0.31171   0.30300   3.39492
    A9        3.14159  -0.00000   0.00000   0.00000   0.00000   3.14159
   A10        3.14159   0.00000   0.00000   0.00000   0.00000   3.14159
    D1        3.14159   0.00000   0.00000  -0.00000   0.00000   3.14159
    D2       -0.00000  -0.00000   0.00000  -0.00000   0.00000   0.00000
    D3        0.00000   0.00000   0.00000  -0.00000  -0.00000   0.00000
    D4        3.14159   0.00000   0.00000  -0.00000   0.00000   3.14159
         Item               Value     Threshold  Converged?
 Maximum Force            0.086105     0.000002     NO 
 RMS     Force            0.023542     0.000001     NO 
 Maximum Displacement     0.579367     0.000006     NO 
 RMS     Displacement     0.192146     0.000004     NO 
 Predicted change in Energy=-3.278169D-02
 GradGradGradGradGradGradGradGradGradGradGradGradGradGradGradGradGradGrad

                          Input orientation:                          
 ---------------------------------------------------------------------
 Center     Atomic      Atomic             Coordinates (Angstroms)
 Number     Number       Type             X           Y           Z
 ---------------------------------------------------------------------
      1          6           0       -5.729907   -1.031840    0.000000
      2          6           0       -5.267324    0.178374    0.000000
      3          1           0       -5.842786   -2.092089    0.000000
      4          1           0       -5.755571    1.151017    0.000000
      5          6           0       -4.019951   -0.285309   -0.000000
      6          6           0       -2.721783   -0.418930   -0.000000
      7          1           0       -2.083359    0.459263   -0.000000
      8          1           0       -2.256660   -1.394227   -0.000000
 ---------------------------------------------------------------------
                    Distance matrix (angstroms):
                    1          2          3          4          5
     1  C    0.000000
     2  C    1.295608   0.000000
     3  H    1.066241   2.342255   0.000000
     4  H    2.183008   1.088311   3.244278   0.000000
     5  C    1.865813   1.330767   2.566551   2.252867   0.000000
     6  C    3.069930   2.614680   3.541204   3.415934   1.305027
     7  H    3.939632   3.196331   4.543423   3.736798   2.074795
     8  H    3.492101   3.396641   3.653397   4.326736   2.083001
                    6          7          8
     6  C    0.000000
     7  H    1.085729   0.000000
     8  H    1.080530   1.861574   0.000000
 Stoichiometry    C4H4
 Framework group  CS[SG(C4H4)]
 Deg. of freedom    13
 Full point group                 CS      NOp   2
 Largest Abelian subgroup         CS      NOp   2
 Largest concise Abelian subgroup C1      NOp   1
                         Standard orientation:                         
 ---------------------------------------------------------------------
 Center     Atomic      Atomic             Coordinates (Angstroms)
 Number     Number       Type             X           Y           Z
 ---------------------------------------------------------------------
      1          6           0       -0.173894   -1.488672    0.000000
      2          6           0        0.830761   -0.670584    0.000000
      3          1           0       -1.145558   -1.927691    0.000000
      4          1           0        1.907346   -0.829913    0.000000
      5          6           0       -0.000000    0.369020    0.000000
      6          6           0       -0.533176    1.560162    0.000000
      7          1           0        0.101106    2.441350    0.000000
      8          1           0       -1.605045    1.696697    0.000000
 ---------------------------------------------------------------------
 Rotational constants (GHZ):          32.1623702           6.3115105           5.2761285
 Standard basis: CC-pVTZ (5D, 7F)
 There are   140 symmetry adapted cartesian basis functions of A'  symmetry.
 There are    60 symmetry adapted cartesian basis functions of A"  symmetry.
 There are   120 symmetry adapted basis functions of A'  symmetry.
 There are    56 symmetry adapted basis functions of A"  symmetry.
   176 basis functions,   276 primitive gaussians,   200 cartesian basis functions
    14 alpha electrons       14 beta electrons
       nuclear repulsion energy        94.0294808265 Hartrees.
 NAtoms=    8 NActive=    8 NUniq=    8 SFac= 1.00D+00 NAtFMM=   60 NAOKFM=F Big=F
 Integral buffers will be    131072 words long.
 Raffenetti 2 integral format.
 Two-electron integral symmetry is turned on.
 One-electron integrals computed using PRISM.
 NBasis=   176 RedAO= T EigKep=  1.36D-04  NBF=   120    56
 NBsUse=   176 1.00D-06 EigRej= -1.00D+00 NBFU=   120    56
 Initial guess from the checkpoint file:  "/scratch/dinius.ab/QMscratch/Gau-15921.chk"
 B after Tr=     0.000000   -0.000000    0.000000
         Rot=    0.994243    0.000000   -0.000000    0.107148 Ang=  12.30 deg.
 Initial guess orbital symmetries:
       Occupied  (A') (A') (A') (A') (A') (A') (A') (A') (A') (A')
                 (A') (A") (A") (A')
       Virtual   (A') (A") (A') (A') (A') (A") (A') (A') (A') (A')
                 (A') (A") (A') (A") (A') (A') (A") (A') (A') (A')
                 (A") (A') (A') (A') (A") (A') (A") (A') (A') (A")
                 (A') (A') (A') (A") (A') (A') (A") (A') (A") (A')
                 (A") (A') (A") (A') (A') (A') (A') (A") (A') (A")
                 (A') (A') (A') (A") (A') (A") (A') (A') (A') (A')
                 (A') (A') (A") (A') (A") (A') (A") (A') (A') (A")
                 (A') (A') (A') (A") (A') (A') (A') (A") (A') (A")
                 (A") (A') (A') (A") (A") (A') (A") (A') (A") (A')
                 (A') (A") (A") (A') (A') (A") (A') (A') (A') (A")
                 (A") (A') (A') (A") (A') (A") (A") (A') (A") (A')
                 (A') (A') (A') (A") (A') (A') (A") (A') (A") (A')
                 (A') (A") (A') (A") (A') (A") (A') (A') (A") (A')
                 (A') (A') (A") (A") (A') (A') (A') (A") (A') (A")
                 (A') (A') (A') (A") (A') (A") (A") (A') (A') (A')
                 (A') (A") (A') (A') (A') (A') (A') (A') (A') (A')
                 (A') (A')
 ExpMin= 1.03D-01 ExpMax= 8.24D+03 ExpMxC= 2.81D+02 IAcc=2 IRadAn=         4 AccDes= 0.00D+00
 Harris functional with IExCor= 1009 and IRadAn=       4 diagonalized for initial guess.
 HarFok:  IExCor= 1009 AccDes= 0.00D+00 IRadAn=         4 IDoV= 1 UseB2=F ITyADJ=14
 ICtDFT=  3500011 ScaDFX=  1.000000  1.000000  1.000000  1.000000
 FoFCou: FMM=F IPFlag=           0 FMFlag=      100000 FMFlg1=           0
         NFxFlg=           0 DoJE=T BraDBF=F KetDBF=T FulRan=T
         wScrn=  0.000000 ICntrl=       500 IOpCl=  0 I1Cent=   200000004 NGrid=           0
         NMat0=    1 NMatS0=      1 NMatT0=    0 NMatD0=    1 NMtDS0=    0 NMtDT0=    0
 Petite list used in FoFCou.
 Keep R1 ints in memory in symmetry-blocked form, NReq=183150043.
 Requested convergence on RMS density matrix=1.00D-08 within 900 cycles.
 Requested convergence on MAX density matrix=1.00D-06.
 Requested convergence on             energy=1.00D-06.
 No special actions if energy rises.
 Integral accuracy reduced to 1.0D-05 until final iterations.
 Initial convergence to 1.0D-05 achieved.  Increase integral accuracy.
 SCF Done:  E(RM062X) =  -154.623314627     A.U. after   14 cycles
            NFock= 14  Conv=0.78D-08     -V/T= 2.0055
 Calling FoFJK, ICntrl=      2127 FMM=F ISym2X=1 I1Cent= 0 IOpClX= 0 NMat=1 NMatS=1 NMatT=0.
 ***** Axes restored to original set *****
 -------------------------------------------------------------------
 Center     Atomic                   Forces (Hartrees/Bohr)
 Number     Number              X              Y              Z
 -------------------------------------------------------------------
      1        6           0.056498934   -0.017674505   -0.000000000
      2        6          -0.056969015    0.065383521    0.000000000
      3        1          -0.004022249    0.001041091    0.000000000
      4        1          -0.000731102    0.002001587    0.000000000
      5        6          -0.001323184   -0.042956449    0.000000000
      6        6           0.003978667   -0.007968446   -0.000000000
      7        1          -0.000578979   -0.000496056    0.000000000
      8        1           0.003146927    0.000669258   -0.000000000
 -------------------------------------------------------------------
 Cartesian Forces:  Max     0.065383521 RMS     0.023259460

 GradGradGradGradGradGradGradGradGradGradGradGradGradGradGradGradGradGrad
 Berny optimization.
 Using GDIIS optimizer.
 FormGI is forming the generalized inverse of G from B-inverse, IUseBI=4.
 Internal  Forces:  Max     0.084014572 RMS     0.023278377
 Search for a local minimum.
 Step number   3 out of a maximum of  100
 All quantities printed in internal units (Hartrees-Bohrs-Radians)
 Swapping is turned off.
 Update second derivatives using D2CorX and points    2    3
 DE= -2.97D-02 DEPred=-3.28D-02 R= 9.07D-01
 TightC=F SS=  1.41D+00  RLast= 5.05D-01 DXNew= 8.4853D-01 1.5136D+00
 Trust test= 9.07D-01 RLast= 5.05D-01 DXMaxT set to 8.49D-01
 ITU=  1  1  0
     Eigenvalues ---   -0.03341  -0.00673   0.02628   0.02920   0.03558
     Eigenvalues ---    0.05158   0.06111   0.09020   0.09325   0.11257
     Eigenvalues ---    0.15533   0.33464   0.35255   0.35736   0.41009
     Eigenvalues ---    0.53166   0.68527   0.73090
 DIIS coeff's:      1.17660      2.26446     -2.44106
 Cosine:  0.994 >  0.840
 Length:  1.230
 GDIIS step was calculated using  3 of the last  3 vectors.
 Maximum step size (   0.849) exceeded in Quadratic search.
    -- Step size scaled by   0.288
 Iteration  1 RMS(Cart)=  0.13338859 RMS(Int)=  0.09851966
 Iteration  2 RMS(Cart)=  0.17963236 RMS(Int)=  0.03123019
 Iteration  3 RMS(Cart)=  0.10553814 RMS(Int)=  0.00250804
 Iteration  4 RMS(Cart)=  0.00319359 RMS(Int)=  0.00000026
 Iteration  5 RMS(Cart)=  0.00000055 RMS(Int)=  0.00000000
 ClnCor:  largest displacement from symmetrization is 7.52D-09 for atom     1.
 Variable       Old X    -DE/DX   Delta X   Delta X   Delta X     New X
                                 (Linear)    (Quad)   (Total)
    R1        2.44834  -0.00320  -0.01432  -0.01194  -0.02626   2.42209
    R2        2.01490  -0.00061  -0.00063  -0.00276  -0.00339   2.01151
    R3        2.05661   0.00212   0.00882  -0.02410  -0.01528   2.04133
    R4        2.51479   0.02258  -0.03512  -0.08348  -0.11860   2.39618
    R5        2.46614   0.00731   0.00227   0.02336   0.02564   2.49178
    R6        2.05173  -0.00074   0.00171  -0.00403  -0.00233   2.04940
    R7        2.04190   0.00075   0.00029  -0.01308  -0.01279   2.02911
    A1        2.31127   0.04226   0.08960   0.18063   0.27023   2.58149
    A2        1.57999  -0.08401  -0.17769  -0.45165  -0.62934   0.95065
    A3        2.39192   0.04176   0.08810   0.27102   0.35912   2.75104
    A4        2.09683  -0.00237  -0.00727   0.00963   0.00236   2.09919
    A5        2.11837   0.00438   0.01208  -0.01676  -0.00468   2.11368
    A6        2.06799  -0.00201  -0.00481   0.00713   0.00232   2.07032
    A7        2.88256   0.00828  -0.04305   0.19578   0.15273   3.03530
    A8        3.39492  -0.01072  -0.02476   0.31243   0.28767   3.68259
    A9        3.14159   0.00000   0.00000   0.00000   0.00000   3.14159
   A10        3.14159   0.00000   0.00000   0.00000   0.00000   3.14159
    D1        3.14159  -0.00000   0.00000  -0.00000   0.00000   3.14159
    D2       -0.00000   0.00000   0.00000  -0.00000   0.00000   0.00000
    D3       -0.00000  -0.00000   0.00000  -0.00000   0.00000   0.00000
    D4        3.14159  -0.00000   0.00000  -0.00000   0.00000   3.14159
         Item               Value     Threshold  Converged?
 Maximum Force            0.084015     0.000002     NO 
 RMS     Force            0.023278     0.000001     NO 
 Maximum Displacement     1.166226     0.000006     NO 
 RMS     Displacement     0.396066     0.000004     NO 
 Predicted change in Energy=-7.798011D-02
 GradGradGradGradGradGradGradGradGradGradGradGradGradGradGradGradGradGrad

                          Input orientation:                          
 ---------------------------------------------------------------------
 Center     Atomic      Atomic             Coordinates (Angstroms)
 Number     Number       Type             X           Y           Z
 ---------------------------------------------------------------------
      1          6           0       -5.311469   -0.928285    0.000000
      2          6           0       -5.278682    0.353009    0.000000
      3          1           0       -5.225646   -1.989264    0.000000
      4          1           0       -5.828975    1.282560    0.000000
      5          6           0       -4.265974   -0.410052   -0.000000
      6          6           0       -2.954606   -0.547896   -0.000000
      7          1           0       -2.312949    0.326411   -0.000000
      8          1           0       -2.499040   -1.520223   -0.000000
 ---------------------------------------------------------------------
                    Distance matrix (angstroms):
                    1          2          3          4          5
     1  C    0.000000
     2  C    1.281713   0.000000
     3  H    1.064445   2.342873   0.000000
     4  H    2.270605   1.080226   3.326987   0.000000
     5  C    1.166887   1.268006   1.847940   2.303890   0.000000
     6  C    2.387362   2.492581   2.689826   3.407722   1.318593
     7  H    3.250443   2.965852   3.721042   3.643715   2.087267
     8  H    2.874047   3.351926   2.766655   4.352478   2.086752
                    6          7          8
     6  C    0.000000
     7  H    1.084498   0.000000
     8  H    1.073760   1.855986   0.000000
 Stoichiometry    C4H4
 Framework group  CS[SG(C4H4)]
 Deg. of freedom    13
 Full point group                 CS      NOp   2
 Largest Abelian subgroup         CS      NOp   2
 Largest concise Abelian subgroup C1      NOp   1
                         Standard orientation:                         
 ---------------------------------------------------------------------
 Center     Atomic      Atomic             Coordinates (Angstroms)
 Number     Number       Type             X           Y           Z
 ---------------------------------------------------------------------
      1          6           0       -0.635451   -0.860621   -0.000000
      2          6           0        0.641062   -0.975954    0.000000
      3          1           0       -1.679432   -0.652902   -0.000000
      4          1           0        1.500879   -1.629868    0.000000
      5          6           0        0.000000    0.118065   -0.000000
      6          6           0        0.014450    1.436579   -0.000000
      7          1           0        0.956979    1.973024   -0.000000
      8          1           0       -0.898791    2.001336   -0.000000
 ---------------------------------------------------------------------
 Rotational constants (GHZ):          30.5690797           8.9669978           6.9332339
 Standard basis: CC-pVTZ (5D, 7F)
 There are   140 symmetry adapted cartesian basis functions of A'  symmetry.
 There are    60 symmetry adapted cartesian basis functions of A"  symmetry.
 There are   120 symmetry adapted basis functions of A'  symmetry.
 There are    56 symmetry adapted basis functions of A"  symmetry.
   176 basis functions,   276 primitive gaussians,   200 cartesian basis functions
    14 alpha electrons       14 beta electrons
       nuclear repulsion energy       104.2380960546 Hartrees.
 NAtoms=    8 NActive=    8 NUniq=    8 SFac= 1.00D+00 NAtFMM=   60 NAOKFM=F Big=F
 Integral buffers will be    131072 words long.
 Raffenetti 2 integral format.
 Two-electron integral symmetry is turned on.
 One-electron integrals computed using PRISM.
 NBasis=   176 RedAO= T EigKep=  9.75D-05  NBF=   120    56
 NBsUse=   176 1.00D-06 EigRej= -1.00D+00 NBFU=   120    56
 Initial guess from the checkpoint file:  "/scratch/dinius.ab/QMscratch/Gau-15921.chk"
 B after Tr=     0.000000    0.000000   -0.000000
         Rot=    0.979330   -0.000000    0.000000    0.202268 Ang=  23.34 deg.
 Initial guess orbital symmetries:
       Occupied  (A') (A') (A') (A') (A') (A') (A') (A') (A') (A')
                 (A') (A") (A") (A')
       Virtual   (A") (A') (A') (A') (A") (A') (A') (A') (A') (A')
                 (A") (A') (A') (A') (A") (A') (A") (A') (A') (A")
                 (A') (A') (A') (A') (A") (A') (A') (A") (A') (A")
                 (A') (A") (A') (A') (A') (A') (A') (A") (A") (A')
                 (A") (A') (A') (A") (A') (A') (A') (A") (A') (A")
                 (A') (A') (A') (A') (A") (A") (A') (A') (A') (A')
                 (A') (A') (A") (A') (A") (A') (A") (A") (A') (A')
                 (A') (A') (A") (A') (A') (A') (A") (A') (A") (A')
                 (A') (A") (A") (A') (A") (A') (A") (A") (A') (A')
                 (A") (A') (A') (A') (A") (A') (A') (A") (A") (A')
                 (A") (A') (A") (A') (A') (A") (A") (A') (A') (A")
                 (A') (A') (A") (A') (A') (A') (A") (A") (A') (A")
                 (A') (A') (A') (A") (A') (A') (A") (A") (A') (A')
                 (A") (A') (A') (A') (A') (A") (A') (A") (A') (A")
                 (A') (A') (A') (A") (A') (A") (A') (A') (A") (A')
                 (A") (A') (A') (A') (A') (A') (A') (A') (A') (A')
                 (A') (A')
 ExpMin= 1.03D-01 ExpMax= 8.24D+03 ExpMxC= 2.81D+02 IAcc=2 IRadAn=         4 AccDes= 0.00D+00
 Harris functional with IExCor= 1009 and IRadAn=       4 diagonalized for initial guess.
 HarFok:  IExCor= 1009 AccDes= 0.00D+00 IRadAn=         4 IDoV= 1 UseB2=F ITyADJ=14
 ICtDFT=  3500011 ScaDFX=  1.000000  1.000000  1.000000  1.000000
 FoFCou: FMM=F IPFlag=           0 FMFlag=      100000 FMFlg1=           0
         NFxFlg=           0 DoJE=T BraDBF=F KetDBF=T FulRan=T
         wScrn=  0.000000 ICntrl=       500 IOpCl=  0 I1Cent=   200000004 NGrid=           0
         NMat0=    1 NMatS0=      1 NMatT0=    0 NMatD0=    1 NMtDS0=    0 NMtDT0=    0
 Petite list used in FoFCou.
 Keep R1 ints in memory in symmetry-blocked form, NReq=183150043.
 Requested convergence on RMS density matrix=1.00D-08 within 900 cycles.
 Requested convergence on MAX density matrix=1.00D-06.
 Requested convergence on             energy=1.00D-06.
 No special actions if energy rises.
 Integral accuracy reduced to 1.0D-05 until final iterations.
 Initial convergence to 1.0D-05 achieved.  Increase integral accuracy.
 SCF Done:  E(RM062X) =  -154.557770984     A.U. after   15 cycles
            NFock= 15  Conv=0.92D-08     -V/T= 1.9965
 Calling FoFJK, ICntrl=      2127 FMM=F ISym2X=1 I1Cent= 0 IOpClX= 0 NMat=1 NMatS=1 NMatT=0.
 ***** Axes restored to original set *****
 -------------------------------------------------------------------
 Center     Atomic                   Forces (Hartrees/Bohr)
 Number     Number              X              Y              Z
 -------------------------------------------------------------------
      1        6          -0.296531858   -0.204550263    0.000000000
      2        6          -0.144910486    0.113650962    0.000000000
      3        1          -0.046309136   -0.018588341    0.000000000
      4        1           0.002509870   -0.005275182    0.000000000
      5        6           0.452680825    0.119574854   -0.000000000
      6        6           0.031397259    0.004263599   -0.000000000
      7        1          -0.000737407   -0.004717931    0.000000000
      8        1           0.001900935   -0.004357697    0.000000000
 -------------------------------------------------------------------
 Cartesian Forces:  Max     0.452680825 RMS     0.126898775

 GradGradGradGradGradGradGradGradGradGradGradGradGradGradGradGradGradGrad
 Berny optimization.
 Using GDIIS optimizer.
 FormGI is forming the generalized inverse of G from B-inverse, IUseBI=4.
 Internal  Forces:  Max     0.607753531 RMS     0.185147752
 Search for a local minimum.
 Step number   4 out of a maximum of  100
 All quantities printed in internal units (Hartrees-Bohrs-Radians)
 Swapping is turned off.
 Update second derivatives using D2CorX and points    3    4
 DE=  6.55D-02 DEPred=-7.80D-02 R=-8.41D-01
 Trust test=-8.41D-01 RLast= 8.49D-01 DXMaxT set to 4.24D-01
 ITU= -1  1  1  0
     Eigenvalues ---   -0.00673   0.02920   0.03558   0.04125   0.05158
     Eigenvalues ---    0.06111   0.09061   0.09612   0.15358   0.22417
     Eigenvalues ---    0.33257   0.35254   0.35745   0.40990   0.49183
     Eigenvalues ---    0.64247   0.68568   1.46958
 Cut down GDIIS temporarily because of the coefficient check. E 4
 DIIS coeff's:      0.11038      0.88962
 Cosine:  1.000 >  0.970
 Length:  1.000
 GDIIS step was calculated using  2 of the last  4 vectors.
 Maximum step size (   0.424) exceeded in Quadratic search.
    -- Step size scaled by   0.449
 Iteration  1 RMS(Cart)=  0.16067502 RMS(Int)=  0.02210897
 Iteration  2 RMS(Cart)=  0.04496553 RMS(Int)=  0.00106234
 Iteration  3 RMS(Cart)=  0.00186452 RMS(Int)=  0.00000020
 Iteration  4 RMS(Cart)=  0.00000025 RMS(Int)=  0.00000000
 ClnCor:  largest displacement from symmetrization is 7.65D-09 for atom     2.
 Variable       Old X    -DE/DX   Delta X   Delta X   Delta X     New X
                                 (Linear)    (Quad)   (Total)
    R1        2.42209   0.23183   0.01049  -0.00945   0.00104   2.42313
    R2        2.01151   0.01479   0.00136  -0.00083   0.00052   2.01203
    R3        2.04133  -0.00582   0.00611  -0.00134   0.00477   2.04610
    R4        2.39618   0.31848   0.04740   0.05925   0.10665   2.50283
    R5        2.49178   0.03289  -0.01025   0.00321  -0.00703   2.48475
    R6        2.04940  -0.00424   0.00093  -0.00033   0.00060   2.05000
    R7        2.02911   0.00475   0.00511   0.00019   0.00530   2.03441
    A1        2.58149  -0.30441  -0.10799   0.04406  -0.06394   2.51755
    A2        0.95065   0.60775   0.25151  -0.02655   0.22496   1.17561
    A3        2.75104  -0.30334  -0.14352  -0.01750  -0.16102   2.59002
    A4        2.09919   0.00309  -0.00094  -0.01131  -0.01225   2.08693
    A5        2.11368  -0.00168   0.00187   0.02181   0.02368   2.13736
    A6        2.07032  -0.00141  -0.00093  -0.01050  -0.01143   2.05889
    A7        3.03530   0.09587  -0.06104   0.14641   0.08537   3.12067
    A8        3.68259  -0.00823  -0.11497  -0.16747  -0.28244   3.40015
    A9        3.14159  -0.00000  -0.00000  -0.00000   0.00000   3.14159
   A10        3.14159   0.00000  -0.00000  -0.00000   0.00000   3.14159
    D1        3.14159  -0.00000  -0.00000   0.00000   0.00000   3.14159
    D2       -0.00000   0.00000   0.00000   0.00000   0.00000   0.00000
    D3        0.00000  -0.00000   0.00000   0.00000   0.00000   0.00000
    D4        3.14159  -0.00000  -0.00000   0.00000   0.00000   3.14159
         Item               Value     Threshold  Converged?
 Maximum Force            0.607754     0.000002     NO 
 RMS     Force            0.185148     0.000001     NO 
 Maximum Displacement     0.400584     0.000006     NO 
 RMS     Displacement     0.161347     0.000004     NO 
 Predicted change in Energy=-1.934237D-01
 GradGradGradGradGradGradGradGradGradGradGradGradGradGradGradGradGradGrad

                          Input orientation:                          
 ---------------------------------------------------------------------
 Center     Atomic      Atomic             Coordinates (Angstroms)
 Number     Number       Type             X           Y           Z
 ---------------------------------------------------------------------
      1          6           0       -5.402321   -0.967303    0.000000
      2          6           0       -5.332996    0.313086    0.000000
      3          1           0       -5.437626   -2.031439    0.000000
      4          1           0       -5.917235    1.224685    0.000000
      5          6           0       -4.139989   -0.262133   -0.000000
      6          6           0       -2.848956   -0.511376   -0.000000
      7          1           0       -2.144433    0.313531   -0.000000
      8          1           0       -2.453784   -1.512790   -0.000000
 ---------------------------------------------------------------------
                    Distance matrix (angstroms):
                    1          2          3          4          5
     1  C    0.000000
     2  C    1.282265   0.000000
     3  H    1.064722   2.346859   0.000000
     4  H    2.251654   1.082749   3.291256   0.000000
     5  C    1.445942   1.324441   2.194153   2.317160   0.000000
     6  C    2.593750   2.617287   3.001966   3.525371   1.314872
     7  H    3.500624   3.188563   4.042772   3.881267   2.076928
     8  H    2.998570   3.409353   3.028582   4.414664   2.099388
                    6          7          8
     6  C    0.000000
     7  H    1.084816   0.000000
     8  H    1.076564   1.852336   0.000000
 Stoichiometry    C4H4
 Framework group  CS[SG(C4H4)]
 Deg. of freedom    13
 Full point group                 CS      NOp   2
 Largest Abelian subgroup         CS      NOp   2
 Largest concise Abelian subgroup C1      NOp   1
                         Standard orientation:                         
 ---------------------------------------------------------------------
 Center     Atomic      Atomic             Coordinates (Angstroms)
 Number     Number       Type             X           Y           Z
 ---------------------------------------------------------------------
      1          6           0       -0.058392   -1.189358    0.000000
      2          6           0        1.052378   -0.548738    0.000000
      3          1           0       -0.991641   -1.701879    0.000000
      4          1           0        2.129620   -0.657803    0.000000
      5          6           0       -0.000000    0.255404   -0.000000
      6          6           0       -0.805919    1.294337   -0.000000
      7          1           0       -0.388572    2.295660   -0.000000
      8          1           0       -1.877812    1.194155   -0.000000
 ---------------------------------------------------------------------
 Rotational constants (GHZ):          29.6763671           7.7878687           6.1689674
 Standard basis: CC-pVTZ (5D, 7F)
 There are   140 symmetry adapted cartesian basis functions of A'  symmetry.
 There are    60 symmetry adapted cartesian basis functions of A"  symmetry.
 There are   120 symmetry adapted basis functions of A'  symmetry.
 There are    56 symmetry adapted basis functions of A"  symmetry.
   176 basis functions,   276 primitive gaussians,   200 cartesian basis functions
    14 alpha electrons       14 beta electrons
       nuclear repulsion energy        98.7988378556 Hartrees.
 NAtoms=    8 NActive=    8 NUniq=    8 SFac= 1.00D+00 NAtFMM=   60 NAOKFM=F Big=F
 Integral buffers will be    131072 words long.
 Raffenetti 2 integral format.
 Two-electron integral symmetry is turned on.
 One-electron integrals computed using PRISM.
 NBasis=   176 RedAO= T EigKep=  1.03D-04  NBF=   120    56
 NBsUse=   176 1.00D-06 EigRej= -1.00D+00 NBFU=   120    56
 Initial guess from the checkpoint file:  "/scratch/dinius.ab/QMscratch/Gau-15921.chk"
 B after Tr=     0.000000   -0.000000    0.000000
         Rot=    0.959818   -0.000000    0.000000   -0.280624 Ang= -32.59 deg.
 Initial guess orbital symmetries:
       Occupied  (A') (A') (A') (A') (A') (A') (A') (A') (A') (A")
                 (A') (A') (A') (A")
       Virtual   (A") (A') (A') (A') (A") (A') (A') (A') (A') (A')
                 (A") (A') (A') (A") (A') (A") (A') (A') (A') (A")
                 (A') (A') (A') (A') (A") (A") (A') (A') (A') (A')
                 (A") (A') (A') (A") (A") (A') (A') (A') (A') (A")
                 (A') (A") (A') (A") (A') (A') (A") (A') (A') (A')
                 (A") (A') (A') (A') (A") (A") (A') (A') (A') (A')
                 (A') (A") (A') (A') (A') (A") (A') (A') (A") (A")
                 (A') (A") (A') (A') (A") (A') (A') (A") (A') (A')
                 (A') (A") (A") (A') (A") (A") (A') (A') (A") (A')
                 (A") (A') (A') (A") (A') (A") (A") (A') (A') (A")
                 (A') (A") (A') (A') (A") (A") (A') (A') (A') (A')
                 (A") (A') (A") (A') (A') (A") (A') (A') (A") (A')
                 (A') (A") (A") (A') (A") (A') (A") (A') (A') (A')
                 (A') (A') (A') (A') (A") (A") (A") (A') (A") (A')
                 (A') (A') (A") (A') (A") (A') (A') (A") (A') (A')
                 (A") (A') (A') (A') (A') (A') (A') (A') (A') (A')
                 (A') (A')
 ExpMin= 1.03D-01 ExpMax= 8.24D+03 ExpMxC= 2.81D+02 IAcc=2 IRadAn=         4 AccDes= 0.00D+00
 Harris functional with IExCor= 1009 and IRadAn=       4 diagonalized for initial guess.
 HarFok:  IExCor= 1009 AccDes= 0.00D+00 IRadAn=         4 IDoV= 1 UseB2=F ITyADJ=14
 ICtDFT=  3500011 ScaDFX=  1.000000  1.000000  1.000000  1.000000
 FoFCou: FMM=F IPFlag=           0 FMFlag=      100000 FMFlg1=           0
         NFxFlg=           0 DoJE=T BraDBF=F KetDBF=T FulRan=T
         wScrn=  0.000000 ICntrl=       500 IOpCl=  0 I1Cent=   200000004 NGrid=           0
         NMat0=    1 NMatS0=      1 NMatT0=    0 NMatD0=    1 NMtDS0=    0 NMtDT0=    0
 Petite list used in FoFCou.
 Keep R1 ints in memory in symmetry-blocked form, NReq=183150043.
 Requested convergence on RMS density matrix=1.00D-08 within 900 cycles.
 Requested convergence on MAX density matrix=1.00D-06.
 Requested convergence on             energy=1.00D-06.
 No special actions if energy rises.
 Integral accuracy reduced to 1.0D-05 until final iterations.
 Initial convergence to 1.0D-05 achieved.  Increase integral accuracy.
 SCF Done:  E(RM062X) =  -154.663697341     A.U. after   14 cycles
            NFock= 14  Conv=0.41D-08     -V/T= 2.0036
 Calling FoFJK, ICntrl=      2127 FMM=F ISym2X=1 I1Cent= 0 IOpClX= 0 NMat=1 NMatS=1 NMatT=0.
 ***** Axes restored to original set *****
 -------------------------------------------------------------------
 Center     Atomic                   Forces (Hartrees/Bohr)
 Number     Number              X              Y              Z
 -------------------------------------------------------------------
      1        6           0.022959860   -0.039246650   -0.000000000
      2        6          -0.080731557    0.076028324    0.000000000
      3        1          -0.024105996   -0.003275619    0.000000000
      4        1           0.000528186   -0.001775730   -0.000000000
      5        6           0.064036671   -0.043642949   -0.000000000
      6        6           0.017753016    0.017581534   -0.000000000
      7        1           0.000768791   -0.003343322   -0.000000000
      8        1          -0.001208971   -0.002325587    0.000000000
 -------------------------------------------------------------------
 Cartesian Forces:  Max     0.080731557 RMS     0.030006199

 GradGradGradGradGradGradGradGradGradGradGradGradGradGradGradGradGradGrad
 Berny optimization.
 Using GDIIS optimizer.
 FormGI is forming the generalized inverse of G from B-inverse, IUseBI=4.
 Internal  Forces:  Max     0.087058686 RMS     0.025923494
 Search for a local minimum.
 Step number   5 out of a maximum of  100
 All quantities printed in internal units (Hartrees-Bohrs-Radians)
 Swapping is turned off.
 Update second derivatives using D2CorX and points    3    4    5
 DE= -1.06D-01 DEPred=-1.93D-01 R= 5.48D-01
 TightC=F SS=  1.41D+00  RLast= 4.24D-01 DXNew= 7.1352D-01 1.2728D+00
 Trust test= 5.48D-01 RLast= 4.24D-01 DXMaxT set to 7.14D-01
 ITU=  1 -1  1  1  0
     Eigenvalues ---   -0.00673   0.02920   0.03558   0.03935   0.05158
     Eigenvalues ---    0.06111   0.09073   0.09573   0.15413   0.24920
     Eigenvalues ---    0.33583   0.35257   0.35786   0.40927   0.44275
     Eigenvalues ---    0.65175   0.68535   2.66463
 Cut down GDIIS temporarily because of the coefficient check. E 4
 DIIS coeff's:      1.06609     -0.06609
 Cosine:  1.000 >  0.970
 Length:  1.000
 GDIIS step was calculated using  2 of the last  5 vectors.
 Iteration  1 RMS(Cart)=  0.09690159 RMS(Int)=  0.04867793
 Iteration  2 RMS(Cart)=  0.07400020 RMS(Int)=  0.00914263
 Iteration  3 RMS(Cart)=  0.01159984 RMS(Int)=  0.00015108
 Iteration  4 RMS(Cart)=  0.00019320 RMS(Int)=  0.00000004
 Iteration  5 RMS(Cart)=  0.00000004 RMS(Int)=  0.00000000
 ClnCor:  largest displacement from symmetrization is 2.85D-09 for atom     1.
 Variable       Old X    -DE/DX   Delta X   Delta X   Delta X     New X
                                 (Linear)    (Quad)   (Total)
    R1        2.42313   0.04252   0.00007   0.01407   0.01414   2.43727
    R2        2.01203   0.00407   0.00003   0.00730   0.00734   2.01937
    R3        2.04610  -0.00178   0.00032   0.00284   0.00316   2.04926
    R4        2.50283   0.08706   0.00705   0.18651   0.19356   2.69639
    R5        2.48475   0.01474  -0.00046   0.01052   0.01005   2.49480
    R6        2.05000  -0.00204   0.00004  -0.00041  -0.00037   2.04963
    R7        2.03441   0.00172   0.00035   0.00858   0.00893   2.04334
    A1        2.51755  -0.01550  -0.00423   0.11920   0.11498   2.63253
    A2        1.17561   0.02996   0.01487  -0.08091  -0.06604   1.10957
    A3        2.59002  -0.01446  -0.01064  -0.03829  -0.04893   2.54108
    A4        2.08693   0.00511  -0.00081   0.01636   0.01555   2.10248
    A5        2.13736  -0.00457   0.00157   0.01286   0.01443   2.15179
    A6        2.05889  -0.00054  -0.00076  -0.02922  -0.02998   2.02891
    A7        3.12067   0.04826   0.00564   0.41175   0.41739   3.53806
    A8        3.40015   0.02753  -0.01867  -0.12262  -0.14129   3.25886
    A9        3.14159   0.00000   0.00000   0.00000   0.00000   3.14159
   A10        3.14159  -0.00000   0.00000   0.00000   0.00000   3.14159
    D1        3.14159   0.00000   0.00000  -0.00000   0.00000   3.14159
    D2        0.00000   0.00000   0.00000  -0.00000   0.00000   0.00000
    D3       -0.00000  -0.00000   0.00000  -0.00000   0.00000   0.00000
    D4        3.14159  -0.00000   0.00000  -0.00000   0.00000   3.14159
         Item               Value     Threshold  Converged?
 Maximum Force            0.087059     0.000002     NO 
 RMS     Force            0.025923     0.000001     NO 
 Maximum Displacement     0.283485     0.000006     NO 
 RMS     Displacement     0.121003     0.000004     NO 
 Predicted change in Energy=-1.543470D-02
 GradGradGradGradGradGradGradGradGradGradGradGradGradGradGradGradGradGrad

                          Input orientation:                          
 ---------------------------------------------------------------------
 Center     Atomic      Atomic             Coordinates (Angstroms)
 Number     Number       Type             X           Y           Z
 ---------------------------------------------------------------------
      1          6           0       -5.280994   -0.978454    0.000000
      2          6           0       -5.416703    0.304136    0.000000
      3          1           0       -5.587640   -2.002116    0.000000
      4          1           0       -6.041906    1.190188    0.000000
      5          6           0       -4.079209   -0.192914   -0.000000
      6          6           0       -2.796401   -0.504855   -0.000000
      7          1           0       -2.041181    0.273631   -0.000000
      8          1           0       -2.433306   -1.523357   -0.000000
 ---------------------------------------------------------------------
                    Distance matrix (angstroms):
                    1          2          3          4          5
     1  C    0.000000
     2  C    1.289749   0.000000
     3  H    1.068605   2.312578   0.000000
     4  H    2.298259   1.084420   3.224463   0.000000
     5  C    1.435743   1.426866   2.355542   2.401072   0.000000
     6  C    2.529327   2.742343   3.167460   3.661485   1.320191
     7  H    3.473341   3.375659   4.213833   4.104372   2.090747
     8  H    2.899352   3.498626   3.190460   4.515010   2.116383
                    6          7          8
     6  C    0.000000
     7  H    1.084619   0.000000
     8  H    1.081288   1.839273   0.000000
 Stoichiometry    C4H4
 Framework group  CS[SG(C4H4)]
 Deg. of freedom    13
 Full point group                 CS      NOp   2
 Largest Abelian subgroup         CS      NOp   2
 Largest concise Abelian subgroup C1      NOp   1
                         Standard orientation:                         
 ---------------------------------------------------------------------
 Center     Atomic      Atomic             Coordinates (Angstroms)
 Number     Number       Type             X           Y           Z
 ---------------------------------------------------------------------
      1          6           0        0.014185   -1.121047   -0.000000
      2          6           0        1.156156   -0.521585   -0.000000
      3          1           0       -0.666790   -1.944570   -0.000000
      4          1           0        2.240219   -0.549413   -0.000000
      5          6           0       -0.000000    0.314626    0.000000
      6          6           0       -0.971850    1.208166    0.000000
      7          1           0       -0.743890    2.268558    0.000000
      8          1           0       -2.020490    0.944466    0.000000
 ---------------------------------------------------------------------
 Rotational constants (GHZ):          29.9762059           7.4420154           5.9618918
 Standard basis: CC-pVTZ (5D, 7F)
 There are   140 symmetry adapted cartesian basis functions of A'  symmetry.
 There are    60 symmetry adapted cartesian basis functions of A"  symmetry.
 There are   120 symmetry adapted basis functions of A'  symmetry.
 There are    56 symmetry adapted basis functions of A"  symmetry.
   176 basis functions,   276 primitive gaussians,   200 cartesian basis functions
    14 alpha electrons       14 beta electrons
       nuclear repulsion energy        97.2217164740 Hartrees.
 NAtoms=    8 NActive=    8 NUniq=    8 SFac= 1.00D+00 NAtFMM=   60 NAOKFM=F Big=F
 Integral buffers will be    131072 words long.
 Raffenetti 2 integral format.
 Two-electron integral symmetry is turned on.
 One-electron integrals computed using PRISM.
 NBasis=   176 RedAO= T EigKep=  1.33D-04  NBF=   120    56
 NBsUse=   176 1.00D-06 EigRej= -1.00D+00 NBFU=   120    56
 Initial guess from the checkpoint file:  "/scratch/dinius.ab/QMscratch/Gau-15921.chk"
 B after Tr=    -0.000000    0.000000   -0.000000
         Rot=    0.998678   -0.000000   -0.000000   -0.051411 Ang=  -5.89 deg.
 Initial guess orbital symmetries:
       Occupied  (A') (A') (A') (A') (A') (A') (A') (A') (A') (A')
                 (A") (A') (A') (A")
       Virtual   (A") (A') (A') (A") (A') (A') (A') (A') (A') (A')
                 (A') (A") (A') (A") (A') (A") (A') (A') (A') (A')
                 (A") (A') (A') (A') (A") (A') (A") (A') (A') (A')
                 (A") (A') (A") (A') (A') (A') (A") (A') (A") (A')
                 (A') (A") (A') (A") (A') (A') (A') (A") (A') (A')
                 (A") (A') (A') (A') (A") (A") (A') (A') (A') (A')
                 (A') (A') (A") (A') (A") (A') (A") (A') (A") (A')
                 (A') (A") (A') (A') (A") (A') (A') (A') (A') (A")
                 (A") (A') (A") (A') (A") (A') (A") (A') (A") (A')
                 (A") (A') (A') (A") (A') (A') (A") (A') (A') (A")
                 (A") (A') (A") (A') (A') (A") (A") (A') (A') (A')
                 (A") (A') (A') (A") (A") (A') (A') (A") (A') (A')
                 (A') (A") (A') (A") (A') (A") (A") (A') (A') (A')
                 (A') (A") (A') (A') (A") (A') (A") (A') (A') (A")
                 (A') (A') (A") (A') (A") (A') (A') (A') (A") (A')
                 (A") (A') (A') (A') (A') (A') (A') (A') (A') (A')
                 (A') (A')
 ExpMin= 1.03D-01 ExpMax= 8.24D+03 ExpMxC= 2.81D+02 IAcc=2 IRadAn=         4 AccDes= 0.00D+00
 Harris functional with IExCor= 1009 and IRadAn=       4 diagonalized for initial guess.
 HarFok:  IExCor= 1009 AccDes= 0.00D+00 IRadAn=         4 IDoV= 1 UseB2=F ITyADJ=14
 ICtDFT=  3500011 ScaDFX=  1.000000  1.000000  1.000000  1.000000
 FoFCou: FMM=F IPFlag=           0 FMFlag=      100000 FMFlg1=           0
[...]
     4   1    -0.29  -0.39  -0.00    -0.33  -0.26  -0.00    -0.03  -0.03   0.00
     5   6    -0.09  -0.00   0.00     0.25   0.00  -0.00     0.00  -0.07   0.00
     6   6     0.12   0.00  -0.00    -0.12   0.00  -0.00     0.00  -0.08   0.00
     7   1    -0.17   0.46   0.00     0.17  -0.46   0.00    -0.39   0.59  -0.00
     8   1    -0.17  -0.46  -0.00     0.17   0.46   0.00     0.39   0.59  -0.00
                     13                     14                     15
                     A'                     A'                     A'
 Frequencies --   1637.3799              1864.1720              3186.4262
 Red. masses --      6.1773                 7.6117                 1.0558
 Frc consts  --      9.7577                15.5850                 6.3161
 IR Inten    --     29.2869               210.8000                 0.7896
  Atom  AN      X      Y      Z        X      Y      Z        X      Y      Z
     1   6     0.44  -0.04  -0.00    -0.21  -0.11   0.00     0.00  -0.00  -0.00
     2   6    -0.44  -0.04   0.00     0.21  -0.11  -0.00    -0.00  -0.00   0.00
     3   1     0.33   0.36   0.00    -0.33  -0.18   0.00     0.01   0.01   0.00
     4   1    -0.33   0.36  -0.00     0.33  -0.18   0.00    -0.01   0.01   0.00
     5   6    -0.00   0.21  -0.00    -0.00   0.61  -0.00    -0.00  -0.01  -0.00
     6   6     0.00  -0.19  -0.00     0.00  -0.35   0.00    -0.00   0.07  -0.00
     7   1    -0.16   0.05   0.00    -0.24  -0.03   0.00    -0.61  -0.35  -0.00
     8   1     0.16   0.05  -0.00     0.24  -0.03  -0.00     0.61  -0.35   0.00
                     16                     17                     18
                     A'                     A'                     A'
 Frequencies --   3273.5818              3275.9650              3318.1892
 Red. masses --      1.1015                 1.1038                 1.1436
 Frc consts  --      6.9545                 6.9794                 7.4185
 IR Inten    --      0.5093                 8.7430                 4.9431
  Atom  AN      X      Y      Z        X      Y      Z        X      Y      Z
     1   6    -0.04  -0.02  -0.00    -0.04  -0.02   0.00     0.07   0.04   0.00
     2   6    -0.04   0.02   0.00    -0.04   0.02   0.00    -0.07   0.04   0.00
     3   1     0.42   0.26   0.00     0.43   0.26  -0.00    -0.60  -0.37   0.00
     4   1     0.42  -0.26  -0.00     0.43  -0.26  -0.00     0.60  -0.37  -0.00
     5   6    -0.00   0.00  -0.00     0.00   0.00   0.00     0.00  -0.01  -0.00
     6   6    -0.07  -0.00  -0.00     0.07   0.00  -0.00     0.00   0.00  -0.00
     7   1     0.42   0.26   0.00    -0.42  -0.25   0.00    -0.01  -0.00   0.00
     8   1     0.42  -0.26   0.00    -0.42   0.25  -0.00     0.01  -0.00  -0.00

 -------------------
 - Thermochemistry -
 -------------------
 Temperature   298.150 Kelvin.  Pressure   1.00000 Atm.
 Atom     1 has atomic number  6 and mass  12.00000
 Atom     2 has atomic number  6 and mass  12.00000
 Atom     3 has atomic number  1 and mass   1.00783
 Atom     4 has atomic number  1 and mass   1.00783
 Atom     5 has atomic number  6 and mass  12.00000
 Atom     6 has atomic number  6 and mass  12.00000
 Atom     7 has atomic number  1 and mass   1.00783
 Atom     8 has atomic number  1 and mass   1.00783
 Molecular mass:    52.03130 amu.
 Principal axes and moments of inertia in atomic units:
                           1         2         3
     Eigenvalues --    60.72701 249.34146 310.06848
           X           -0.00000   1.00000   0.00000
           Y            1.00000   0.00000   0.00000
           Z           -0.00000  -0.00000   1.00000
 This molecule is an asymmetric top.
 Rotational symmetry number  1.
 Rotational temperatures (Kelvin)      1.42628     0.34737     0.27934
 Rotational constants (GHZ):          29.71892     7.23803     5.82046
 Zero-point vibrational energy     161257.5 (Joules/Mol)
                                   38.54148 (Kcal/Mol)
 Warning -- explicit consideration of   2 degrees of freedom as
           vibrations may cause significant error
 Vibrational temperatures:    514.02   637.95  1020.48  1035.07  1149.63
          (Kelvin)           1230.34  1274.25  1346.03  1478.44  1534.62
                             1651.44  2097.41  2355.82  2682.13  4584.56
                             4709.95  4713.38  4774.13
 
 Zero-point correction=                           0.061420 (Hartree/Particle)
 Thermal correction to Energy=                    0.065428
 Thermal correction to Enthalpy=                  0.066372
 Thermal correction to Gibbs Free Energy=         0.035850
 Sum of electronic and zero-point Energies=           -154.629773
 Sum of electronic and thermal Energies=              -154.625765
 Sum of electronic and thermal Enthalpies=            -154.624821
 Sum of electronic and thermal Free Energies=         -154.655344
 
                     E (Thermal)             CV                S
                      KCal/Mol        Cal/Mol-Kelvin    Cal/Mol-Kelvin
 Total                   41.057             13.744             64.240
 Electronic               0.000              0.000              0.000
 Translational            0.889              2.981             37.771
 Rotational               0.889              2.981             23.067
 Vibrational             39.279              7.782              3.403
 Vibration     1          0.732              1.560              1.134
 Vibration     2          0.803              1.375              0.816
                       Q            Log10(Q)             Ln(Q)
 Total Bot       0.323847D-16        -16.489660        -37.968845
 Total V=0       0.577353D+12         11.761441         27.081719
 Vib (Bot)       0.895008D-28        -28.048173        -64.583306
 Vib (Bot)    1  0.513979D+00         -0.289055         -0.665574
 Vib (Bot)    2  0.388824D+00         -0.410247         -0.944628
 Vib (V=0)       0.159561D+01          0.202928          0.467258
 Vib (V=0)    1  0.121706D+01          0.085312          0.196437
 Vib (V=0)    2  0.113339D+01          0.054380          0.125214
 Electronic      0.100000D+01          0.000000          0.000000
 Translational   0.147520D+08          7.168851         16.506889
 Rotational      0.245280D+05          4.389663         10.107572
 ***** Axes restored to original set *****
 -------------------------------------------------------------------
 Center     Atomic                   Forces (Hartrees/Bohr)
 Number     Number              X              Y              Z
 -------------------------------------------------------------------
      1        6          -0.000000366    0.000000135    0.000000000
      2        6           0.000000013   -0.000000150   -0.000000000
      3        1           0.000000068   -0.000000074   -0.000000000
      4        1          -0.000000029    0.000000043    0.000000000
      5        6           0.000000423    0.000000076   -0.000000000
      6        6          -0.000000304   -0.000000055    0.000000000
      7        1           0.000000078    0.000000066   -0.000000000
      8        1           0.000000116   -0.000000041   -0.000000000
 -------------------------------------------------------------------
 Cartesian Forces:  Max     0.000000423 RMS     0.000000143
 FormGI is forming the generalized inverse of G from B-inverse, IUseBI=4.

 GradGradGradGradGradGradGradGradGradGradGradGradGradGradGradGradGradGrad
 Berny optimization.
 Internal  Forces:  Max     0.000000361 RMS     0.000000129
 Search for a local minimum.
 Step number   1 out of a maximum of    2
 All quantities printed in internal units (Hartrees-Bohrs-Radians)
 Swapping is turned off.
 Second derivative matrix not updated -- analytic derivatives used.
 ITU=  0
     Eigenvalues ---    0.01103   0.02614   0.04018   0.06363   0.06616
     Eigenvalues ---    0.10032   0.10817   0.10859   0.12486   0.16227
     Eigenvalues ---    0.31049   0.36750   0.37085   0.37788   0.37915
     Eigenvalues ---    0.60549   0.66359   1.42492
 Angle between quadratic step and forces=  50.51 degrees.
 Linear search not attempted -- option 19 set.
 Iteration  1 RMS(Cart)=  0.00000052 RMS(Int)=  0.00000000
 ClnCor:  largest displacement from symmetrization is 1.45D-13 for atom     1.
 Variable       Old X    -DE/DX   Delta X   Delta X   Delta X     New X
                                 (Linear)    (Quad)   (Total)
    R1        2.47780  -0.00000   0.00000  -0.00000  -0.00000   2.47780
    R2        2.03203   0.00000   0.00000   0.00000   0.00000   2.03203
    R3        2.03203   0.00000   0.00000   0.00000   0.00000   2.03203
    R4        2.70874   0.00000   0.00000   0.00000   0.00000   2.70874
    R5        2.50063  -0.00000   0.00000  -0.00000  -0.00000   2.50063
    R6        2.03972   0.00000   0.00000   0.00000   0.00000   2.03972
    R7        2.03972   0.00000   0.00000   0.00000   0.00000   2.03972
    A1        2.58377  -0.00000   0.00000  -0.00000  -0.00000   2.58377
    A2        1.09576   0.00000   0.00000   0.00000   0.00000   1.09576
    A3        2.60366  -0.00000   0.00000  -0.00000  -0.00000   2.60366
    A4        2.10730  -0.00000   0.00000  -0.00000  -0.00000   2.10730
    A5        2.10730   0.00000   0.00000   0.00000   0.00000   2.10730
    A6        2.06858  -0.00000   0.00000  -0.00000  -0.00000   2.06858
    A7        3.69942  -0.00000   0.00000  -0.00000  -0.00000   3.69942
    A8        3.61663   0.00000   0.00000   0.00000   0.00000   3.61663
    A9        3.14159  -0.00000   0.00000  -0.00000   0.00000   3.14159
   A10        3.14159  -0.00000   0.00000   0.00000   0.00000   3.14159
    D1        3.14159   0.00000   0.00000   0.00000   0.00000   3.14159
    D2        0.00000  -0.00000   0.00000   0.00000  -0.00000   0.00000
    D3       -0.00000   0.00000   0.00000   0.00000   0.00000   0.00000
    D4        3.14159   0.00000   0.00000   0.00000   0.00000   3.14159
         Item               Value     Threshold  Converged?
 Maximum Force            0.000000     0.000002     YES
 RMS     Force            0.000000     0.000001     YES
 Maximum Displacement     0.000001     0.000006     YES
 RMS     Displacement     0.000001     0.000004     YES
 Predicted change in Energy=-4.144101D-13
 Optimization completed.
    -- Stationary point found.
                           ----------------------------
                           !   Optimized Parameters   !
                           ! (Angstroms and Degrees)  !
 --------------------------                            --------------------------
 ! Name  Definition              Value          Derivative Info.                !
 --------------------------------------------------------------------------------
 ! R1    R(1,2)                  1.3112         -DE/DX =    0.0                 !
 ! R2    R(1,3)                  1.0753         -DE/DX =    0.0                 !
 ! R3    R(2,4)                  1.0753         -DE/DX =    0.0                 !
 ! R4    R(2,5)                  1.4334         -DE/DX =    0.0                 !
 ! R5    R(5,6)                  1.3233         -DE/DX =    0.0                 !
 ! R6    R(6,7)                  1.0794         -DE/DX =    0.0                 !
 ! R7    R(6,8)                  1.0794         -DE/DX =    0.0                 !
 ! A1    A(1,2,4)              148.0389         -DE/DX =    0.0                 !
 ! A2    A(1,2,5)               62.7823         -DE/DX =    0.0                 !
 ! A3    A(4,2,5)              149.1788         -DE/DX =    0.0                 !
 ! A4    A(5,6,7)              120.7397         -DE/DX =    0.0                 !
 ! A5    A(5,6,8)              120.7396         -DE/DX =    0.0                 !
 ! A6    A(7,6,8)              118.5207         -DE/DX =    0.0                 !
 ! A7    L(2,1,3,8,-1)         211.9612         -DE/DX =    0.0                 !
 ! A8    L(2,5,6,3,-1)         207.2177         -DE/DX =    0.0                 !
 ! A9    L(2,1,3,8,-2)         180.0            -DE/DX =    0.0                 !
 ! A10   L(2,5,6,3,-2)         180.0            -DE/DX =    0.0                 !
 ! D1    D(1,2,6,7)            180.0            -DE/DX =    0.0                 !
 ! D2    D(1,2,6,8)              0.0            -DE/DX =    0.0                 !
 ! D3    D(4,2,6,7)              0.0            -DE/DX =    0.0                 !
 ! D4    D(4,2,6,8)            180.0            -DE/DX =    0.0                 !
 --------------------------------------------------------------------------------
 GradGradGradGradGradGradGradGradGradGradGradGradGradGradGradGradGradGrad


 ----------------------------------------------------------------------

 Electric dipole moment (input orientation):
 (Debye = 10**-18 statcoulomb cm , SI units = C m)
                  (au)            (Debye)         (10**-30 SI)
   Tot        0.830826D+00      0.211175D+01      0.704403D+01
   x         -0.830521D+00     -0.211097D+01     -0.704145D+01
   y          0.225123D-01      0.572205D-01      0.190867D+00
   z          0.000000D+00      0.000000D+00      0.000000D+00

 Dipole polarizability, Alpha (input orientation).
 (esu units = cm**3 , SI units = C**2 m**2 J**-1)
 Alpha(0;0):
               (au)            (10**-24 esu)      (10**-40 SI)
   iso        0.430242D+02      0.637552D+01      0.709373D+01
   aniso      0.326940D+02      0.484475D+01      0.539051D+01
   xx         0.624995D+02      0.926147D+01      0.103048D+02
   yx        -0.563032D+00     -0.834328D-01     -0.928315D-01
   yy         0.417432D+02      0.618571D+01      0.688253D+01
   zx         0.000000D+00      0.000000D+00      0.000000D+00
   zy         0.000000D+00      0.000000D+00      0.000000D+00
   zz         0.248298D+02      0.367939D+01      0.409388D+01

 ----------------------------------------------------------------------

 Dipole orientation:
     6         -0.06138019         -2.26443115         10.06409438
     6          0.00575907          0.21246308         10.06409663
     1         -0.10809388         -3.98778730         11.13973830
     1          0.05247276          1.93581919         11.13974030
     6         -0.02781052         -1.02598257          7.65528474
     6         -0.02781049         -1.02598155          5.15465449
     1          0.01969308          0.72651506          4.11207493
     1         -0.07531407         -2.77847840          4.11207520

 Electric dipole moment (dipole orientation):
 (Debye = 10**-18 statcoulomb cm , SI units = C m)
                  (au)            (Debye)         (10**-30 SI)
   Tot        0.830826D+00      0.211175D+01      0.704403D+01
   x          0.000000D+00      0.000000D+00      0.000000D+00
   y          0.000000D+00      0.000000D+00      0.000000D+00
   z          0.830826D+00      0.211175D+01      0.704403D+01

 Dipole polarizability, Alpha (dipole orientation).
 (esu units = cm**3 , SI units = C**2 m**2 J**-1)
 Alpha(0;0):
               (au)            (10**-24 esu)      (10**-40 SI)
   iso        0.430242D+02      0.637552D+01      0.709373D+01
   aniso      0.326940D+02      0.484475D+01      0.539051D+01
   xx         0.248422D+02      0.368123D+01      0.409592D+01
   yx         0.457709D+00      0.678255D-01      0.754661D-01
   yy         0.417155D+02      0.618161D+01      0.687796D+01
   zx         0.000000D+00      0.000000D+00      0.000000D+00
   zy         0.000000D+00      0.000000D+00      0.000000D+00
   zz         0.625147D+02      0.926373D+01      0.103073D+02

 ----------------------------------------------------------------------

 Test job not archived.
 1\1\GINC-C3045\Freq\RM062X\CC-pVTZ\C4H4\DINIUS.AB\02-Apr-2019\0\\#N Ge
 om=AllCheck Guess=TCheck SCRF=Check Test GenChk RM062X/CC-pVTZ Freq\\T
 itle\\0,1\C,-5.3562149522,-1.053979007,0.\C,-5.320687574,0.256737004,0
 .\H,-5.9499320222,-1.9505164397,0.\H,-5.8649648756,1.1841211514,0.\C,-
 4.0642315102,-0.4331595163,0.\C,-2.7414408225,-0.4690148433,0.\H,-2.16
 47962396,0.4434171541,0.\H,-2.2150720038,-1.4113455031,0.\\Version=EM6
 4L-G16RevA.03\State=1-A'\HF=-154.6911931\RMSD=1.595e-09\RMSF=1.434e-07
 \ZeroPoint=0.0614198\Thermal=0.0654278\Dipole=-0.8305205,0.0225123,0.\
 DipoleDeriv=-0.4434004,0.0660269,0.,-0.0801961,-0.0392047,0.,0.,0.,-0.
 0793576,-0.4414489,-0.0442046,0.,0.1020185,-0.0411583,0.,0.,0.,-0.0793
 576,0.0488769,-0.0803002,0.,-0.018773,0.097023,0.,0.,0.,0.1794366,0.05
 43775,0.0826135,0.,0.0210866,0.0915229,0.,0.,0.,0.1794368,1.4633186,-0
 .0430218,0.,-0.0430226,-0.1227083,0.,0.,0.,-0.0689434,-0.662511,0.0212
 429,0.,0.0212432,0.120619,0.,0.,0.,-0.4816475,-0.0116754,-0.0171744,0.
 ,-0.0614619,-0.0509776,0.,0.,0.,0.1752164,-0.0075373,0.0148176,0.,0.05
 91052,-0.0551161,0.,0.,0.,0.1752163\Polar=62.4994796,-0.5630325,41.743
 2163,0.,0.,24.829787\Quadrupole=0.3785623,2.1273964,-2.5059586,0.04743
 83,0.,0.\PG=CS [SG(C4H4)]\NImag=0\\0.45525300,0.26917167,0.98535895,0.
 ,0.,0.09406036,-0.02608250,-0.00535225,0.,0.42768764,-0.02781659,-0.63
 748316,0.,-0.23891732,1.01292394,0.,0.,-0.04994988,0.,0.,0.09406037,-0
 .14475356,-0.15266844,0.,0.00263693,0.00468941,0.,0.13549084,-0.146143
 73,-0.27172652,0.,-0.01496629,-0.00236932,0.,0.15887626,0.27388611,0.,
 0.,-0.03590920,0.,0.,0.01458966,0.,0.,0.01863971,0.00317809,-0.0049903
 7,0.,-0.12896246,0.14492322,0.,0.00259760,-0.00035600,0.,0.11870880,0.
 01466529,-0.00291045,0.,0.13839862,-0.28751783,0.,0.00023818,0.0004258
 7,0.,-0.15045767,0.29066834,0.,0.,0.01458965,0.,0.,-0.03590917,0.,0.,-
 0.00465533,0.,0.,0.01863968,-0.26614691,-0.11456801,0.,-0.25412668,0.1
 2414167,0.,0.00550817,0.00267416,0.,0.00587637,-0.00312378,0.,1.093361
 76,-0.09741561,-0.07765209,0.,0.10698924,-0.08967175,0.,-0.00991138,-0
 .00241147,0.,0.00946181,-0.00277969,0.,-0.02263232,0.25900191,0.,0.,-0
 .03379099,0.,0.,-0.03379106,0.,0.,0.00818337,0.,0.,0.00818337,0.,0.,0.
 09414204,-0.02320734,0.01188690,0.,-0.02289613,-0.01053215,0.,-0.00021
 498,-0.00047097,0.,-0.00009893,0.00061281,0.,-0.54284330,0.01216424,0.
 ,0.83758470,-0.01626774,0.00207566,0.,0.01762247,0.00176450,0.,-0.0015
 2615,0.00251546,0.,0.00166798,0.00239942,0.,0.01216428,-0.09440356,0.,
 -0.00542951,0.63741577,0.,0.,0.00686881,0.,0.,0.00686882,0.,0.,-0.0005
 0460,0.,0.,-0.00050459,0.,0.,-0.04428160,0.,0.,0.07822046,-0.00083046,
 -0.00176848,0.,0.00264146,0.00165544,0.,-0.00081269,0.00059695,0.,-0.0
 0044870,0.00022168,0.,-0.02155860,-0.02690162,0.,-0.13105889,-0.129571
 97,0.,0.14211586,0.00310598,0.00072045,0.,-0.00075630,0.00156537,0.,0.
 00014692,-0.00008004,0.,-0.00014387,-0.00024370,0.,0.00082126,0.004702
 25,0.,-0.13291003,-0.26898679,0.,0.14343635,0.27759815,0.,0.,0.0101795
 6,0.,0.,-0.00604831,0.,0.,0.00174342,0.,0.,-0.00208703,0.,0.,0.0006774
 3,0.,0.,-0.02333364,0.,0.,0.01828125,0.00258968,-0.00171101,0.,-0.0008
 9826,0.00185631,0.,-0.00045231,-0.00021036,0.,-0.00085078,-0.00055514,
 0.,-0.02007081,0.02824563,0.,-0.11726514,0.12134064,0.,0.00995201,-0.0
 1370032,0.,0.12699561,0.00070074,0.00161717,0.,-0.00301816,0.00078825,
 0.,0.00015519,-0.00024009,0.,-0.00010511,-0.00004195,0.,0.00052274,0.0
 0321441,0.,0.12467871,-0.28278045,0.,0.01233166,-0.01527568,0.,-0.1352
 6575,0.29271835,0.,0.,-0.00604831,0.,0.,0.01017956,0.,0.,-0.00208703,0
 .,0.,0.00174342,0.,0.,0.00067744,0.,0.,-0.02333366,0.,0.,0.00058732,0.
 ,0.,0.01828126\\0.00000037,-0.00000013,0.,-0.00000001,0.00000015,0.,-0
 .00000007,0.00000007,0.,0.00000003,-0.00000004,0.,-0.00000042,-0.00000
 008,0.,0.00000030,0.00000006,0.,-0.00000008,-0.00000007,0.,-0.00000012
 ,0.00000004,0.\\\@


 LET US PLACE AT THE END OF EVERY CHAPTER.....THE
 TWO LETTERS USED BY THE ROMAN JUDGES WHEN THEY DID
 NOT UNDERSTAND A PLEADING.
 N. L. -NON LIQUET- IT IS NOT CLEAR.
                                              -- VOLTAIRE
 Job cpu time:       0 days  0 hours 15 minutes  1.2 seconds.
 Elapsed time:       0 days  0 hours  0 minutes 45.6 seconds.
 File lengths (MBytes):  RWF=    272 Int=      0 D2E=      0 Chk=     32 Scr=     32
 Normal termination of Gaussian 16 at Tue Apr  2 10:22:59 2019.
