 Entering Gaussian System, Link 0=g16
 Input=nateCC(C)C.com
 Output=nateCC(C)C.log
 Initial command:
 /shared/centos7/gaussian/g16/l1.exe "/scratch/dinius.ab/QMscratch/Gau-218966.inp" -scrdir="/scratch/dinius.ab/QMscratch/"
 Default is to use a total of  20 processors:
                               20 via shared-memory
                                1 via Linda
 Entering Link 1 = /shared/centos7/gaussian/g16/l1.exe PID=    218967.
  
 Copyright (c) 1988,1990,1992,1993,1995,1998,2003,2009,2016,
            Gaussian, Inc.  All Rights Reserved.
  
 This is part of the Gaussian(R) 16 program.  It is based on
 the Gaussian(R) 09 system (copyright 2009, Gaussian, Inc.),
 the Gaussian(R) 03 system (copyright 2003, Gaussian, Inc.),
 the Gaussian(R) 98 system (copyright 1998, Gaussian, Inc.),
 the Gaussian(R) 94 system (copyright 1995, Gaussian, Inc.),
 the Gaussian 92(TM) system (copyright 1992, Gaussian, Inc.),
 the Gaussian 90(TM) system (copyright 1990, Gaussian, Inc.),
 the Gaussian 88(TM) system (copyright 1988, Gaussian, Inc.),
 the Gaussian 86(TM) system (copyright 1986, Carnegie Mellon
 University), and the Gaussian 82(TM) system (copyright 1983,
 Carnegie Mellon University). Gaussian is a federally registered
 trademark of Gaussian, Inc.
  
 This software contains proprietary and confidential information,
 including trade secrets, belonging to Gaussian, Inc.
  
 This software is provided under written license and may be
 used, copied, transmitted, or stored only in accord with that
 written license.
  
 The following legend is applicable only to US Government
 contracts under FAR:
  
                    RESTRICTED RIGHTS LEGEND
  
 Use, reproduction and disclosure by the US Government is
 subject to restrictions as set forth in subparagraphs (a)
 and (c) of the Commercial Computer Software - Restricted
 Rights clause in FAR 52.227-19.
  
 Gaussian, Inc.
 340 Quinnipiac St., Bldg. 40, Wallingford CT 06492
  
  
 ---------------------------------------------------------------
 Warning -- This program may not be used in any manner that
 competes with the business of Gaussian, Inc. or will provide
 assistance to any competitor of Gaussian, Inc.  The licensee
 of this program is prohibited from giving any competitor of
 Gaussian, Inc. access to this program.  By using this program,
 the user acknowledges that Gaussian, Inc. is engaged in the
 business of creating and licensing software in the field of
 computational chemistry and represents and warrants to the
 licensee that it is not a competitor of Gaussian, Inc. and that
 it will not use this program in any manner prohibited above.
 ---------------------------------------------------------------
  

 Cite this work as:
 Gaussian 16, Revision A.03,
 M. J. Frisch, G. W. Trucks, H. B. Schlegel, G. E. Scuseria, 
 M. A. Robb, J. R. Cheeseman, G. Scalmani, V. Barone, 
 G. A. Petersson, H. Nakatsuji, X. Li, M. Caricato, A. V. Marenich, 
 J. Bloino, B. G. Janesko, R. Gomperts, B. Mennucci, H. P. Hratchian, 
 J. V. Ortiz, A. F. Izmaylov, J. L. Sonnenberg, D. Williams-Young, 
 F. Ding, F. Lipparini, F. Egidi, J. Goings, B. Peng, A. Petrone, 
 T. Henderson, D. Ranasinghe, V. G. Zakrzewski, J. Gao, N. Rega, 
 G. Zheng, W. Liang, M. Hada, M. Ehara, K. Toyota, R. Fukuda, 
 J. Hasegawa, M. Ishida, T. Nakajima, Y. Honda, O. Kitao, H. Nakai, 
 T. Vreven, K. Throssell, J. A. Montgomery, Jr., J. E. Peralta, 
 F. Ogliaro, M. J. Bearpark, J. J. Heyd, E. N. Brothers, K. N. Kudin, 
 V. N. Staroverov, T. A. Keith, R. Kobayashi, J. Normand, 
 K. Raghavachari, A. P. Rendell, J. C. Burant, S. S. Iyengar, 
 J. Tomasi, M. Cossi, J. M. Millam, M. Klene, C. Adamo, R. Cammi, 
 J. W. Ochterski, R. L. Martin, K. Morokuma, O. Farkas, 
 J. B. Foresman, and D. J. Fox, Gaussian, Inc., Wallingford CT, 2016.
 
 ******************************************
 Gaussian 16:  EM64L-G16RevA.03 25-Dec-2016
                 5-Apr-2019 
 ******************************************
 ----------------------------------------------------------------------
 ##m062x/cc-pVTZ Opt=(calcfc,verytight,gdiis,maxcycles=900) freq IOP(2/
 16=3) scf=(maxcycle=900)
 ----------------------------------------------------------------------

 Warning!  Use of Opt=GDIIS is deprecated since it is seldom a good choice.

 1/6=900,7=1,10=4,18=20,19=11,26=3,38=1/1,3;
 2/9=110,12=2,16=3,17=6,18=5,40=1/2;
 3/5=16,6=1,11=2,25=1,30=1,71=2,74=-55,140=1/1,2,3;
 4//1;
 5/5=2,7=900,38=5/2;
 8/6=4,10=90,11=11/1;
 11/6=1,8=1,9=11,15=111,16=1/1,2,10;
 10/6=1,13=1/2;
 6/7=2,8=2,9=2,10=2,28=1/1;
 7/10=1,18=20,25=1/1,2,3,16;
 1/6=900,7=1,10=4,18=20,19=11,26=3/3(2);
 2/9=110,16=3/2;
 99//99;
 2/9=110,16=3/2;
 3/5=16,6=1,11=2,25=1,30=1,71=1,74=-55/1,2,3;
 4/5=5,16=3,69=1/1;
 5/5=2,7=900,38=5/2;
 7//1,2,3,16;
 1/6=900,7=1,18=20,19=11,26=3/3(-5);
 2/9=110,16=3/2;
 6/7=2,8=2,9=2,10=2,19=2,28=1/1;
 99/9=1/99;
 -----
 Title
 -----
 Symbolic Z-matrix:
 Charge =  0 Multiplicity = 2
 C                    -1.64913   1.04841   0.18612 
 C                    -2.59156   1.9226    0.94633 
 H                    -3.20396   2.52023   0.26416 
 H                    -2.03818   2.60093   1.60254 
 H                    -3.27081   1.3221    1.55911 
 C                    -1.03861  -0.12094   0.88637 
 H                    -0.22047   0.20674   1.53472 
 H                    -0.64373  -0.84349   0.1655 
 H                    -1.78251  -0.63924   1.49916 
 C                    -0.93804   1.62315  -0.99477 
 H                    -1.6148    2.23934  -1.59478 
 H                    -0.55407   0.82868  -1.64217 
 H                    -0.09786   2.24412  -0.66967 
 

 GradGradGradGradGradGradGradGradGradGradGradGradGradGradGradGradGradGrad
 Berny optimization.
 Initialization pass.
                           ----------------------------
                           !    Initial Parameters    !
                           ! (Angstroms and Degrees)  !
 --------------------------                            --------------------------
 ! Name  Definition              Value          Derivative Info.                !
 --------------------------------------------------------------------------------
 ! R1    R(1,2)                  1.4934         calculate D2E/DX2 analytically  !
 ! R2    R(1,6)                  1.4935         calculate D2E/DX2 analytically  !
 ! R3    R(1,10)                 1.4935         calculate D2E/DX2 analytically  !
 ! R4    R(2,3)                  1.0943         calculate D2E/DX2 analytically  !
 ! R5    R(2,4)                  1.0941         calculate D2E/DX2 analytically  !
 ! R6    R(2,5)                  1.0943         calculate D2E/DX2 analytically  !
 ! R7    R(6,7)                  1.0941         calculate D2E/DX2 analytically  !
 ! R8    R(6,8)                  1.0944         calculate D2E/DX2 analytically  !
 ! R9    R(6,9)                  1.0943         calculate D2E/DX2 analytically  !
 ! R10   R(10,11)                1.0944         calculate D2E/DX2 analytically  !
 ! R11   R(10,12)                1.0944         calculate D2E/DX2 analytically  !
 ! R12   R(10,13)                1.0942         calculate D2E/DX2 analytically  !
 ! A1    A(2,1,6)              118.5299         calculate D2E/DX2 analytically  !
 ! A2    A(2,1,10)             118.5349         calculate D2E/DX2 analytically  !
 ! A3    A(6,1,10)             118.5166         calculate D2E/DX2 analytically  !
 ! A4    A(1,2,3)              110.8242         calculate D2E/DX2 analytically  !
 ! A5    A(1,2,4)              110.4297         calculate D2E/DX2 analytically  !
 ! A6    A(1,2,5)              110.8265         calculate D2E/DX2 analytically  !
 ! A7    A(3,2,4)              108.5631         calculate D2E/DX2 analytically  !
 ! A8    A(3,2,5)              107.5414         calculate D2E/DX2 analytically  !
 ! A9    A(4,2,5)              108.5617         calculate D2E/DX2 analytically  !
 ! A10   A(1,6,7)              110.428          calculate D2E/DX2 analytically  !
 ! A11   A(1,6,8)              110.8304         calculate D2E/DX2 analytically  !
 ! A12   A(1,6,9)              110.8244         calculate D2E/DX2 analytically  !
 ! A13   A(7,6,8)              108.5576         calculate D2E/DX2 analytically  !
 ! A14   A(7,6,9)              108.5624         calculate D2E/DX2 analytically  !
 ! A15   A(8,6,9)              107.5437         calculate D2E/DX2 analytically  !
 ! A16   A(1,10,11)            110.8394         calculate D2E/DX2 analytically  !
 ! A17   A(1,10,12)            110.8193         calculate D2E/DX2 analytically  !
 ! A18   A(1,10,13)            110.4309         calculate D2E/DX2 analytically  !
 ! A19   A(11,10,12)           107.5397         calculate D2E/DX2 analytically  !
 ! A20   A(11,10,13)           108.5541         calculate D2E/DX2 analytically  !
 ! A21   A(12,10,13)           108.5628         calculate D2E/DX2 analytically  !
 ! D1    D(6,1,2,3)           -161.5235         calculate D2E/DX2 analytically  !
 ! D2    D(6,1,2,4)             78.1363         calculate D2E/DX2 analytically  !
 ! D3    D(6,1,2,5)            -42.2038         calculate D2E/DX2 analytically  !
 ! D4    D(10,1,2,3)            42.3937         calculate D2E/DX2 analytically  !
 ! D5    D(10,1,2,4)           -77.9466         calculate D2E/DX2 analytically  !
 ! D6    D(10,1,2,5)           161.7134         calculate D2E/DX2 analytically  !
 ! D7    D(2,1,6,7)            -77.9571         calculate D2E/DX2 analytically  !
 ! D8    D(2,1,6,8)            161.7066         calculate D2E/DX2 analytically  !
 ! D9    D(2,1,6,9)             42.3813         calculate D2E/DX2 analytically  !
 ! D10   D(10,1,6,7)            78.1302         calculate D2E/DX2 analytically  !
 ! D11   D(10,1,6,8)           -42.2061         calculate D2E/DX2 analytically  !
 ! D12   D(10,1,6,9)          -161.5314         calculate D2E/DX2 analytically  !
 ! D13   D(2,1,10,11)          -41.9467         calculate D2E/DX2 analytically  !
 ! D14   D(2,1,10,12)         -161.2695         calculate D2E/DX2 analytically  !
 ! D15   D(2,1,10,13)           78.393          calculate D2E/DX2 analytically  !
 ! D16   D(6,1,10,11)          161.9673         calculate D2E/DX2 analytically  !
 ! D17   D(6,1,10,12)           42.6445         calculate D2E/DX2 analytically  !
 ! D18   D(6,1,10,13)          -77.6931         calculate D2E/DX2 analytically  !
 --------------------------------------------------------------------------------
 Trust Radius=3.00D-01 FncErr=1.00D-07 GrdErr=1.00D-06 EigMax=2.50D+02 EigMin=1.00D-04
 Number of steps in this run=    100 maximum allowed number of steps=    100.
 GradGradGradGradGradGradGradGradGradGradGradGradGradGradGradGradGradGrad

                          Input orientation:                          
 ---------------------------------------------------------------------
 Center     Atomic      Atomic             Coordinates (Angstroms)
 Number     Number       Type             X           Y           Z
 ---------------------------------------------------------------------
      1          6           0       -1.649130    1.048410    0.186120
      2          6           0       -2.591560    1.922600    0.946330
      3          1           0       -3.203960    2.520230    0.264160
      4          1           0       -2.038180    2.600930    1.602540
      5          1           0       -3.270810    1.322100    1.559110
      6          6           0       -1.038610   -0.120940    0.886370
      7          1           0       -0.220470    0.206740    1.534720
      8          1           0       -0.643730   -0.843490    0.165500
      9          1           0       -1.782510   -0.639240    1.499160
     10          6           0       -0.938040    1.623150   -0.994770
     11          1           0       -1.614800    2.239340   -1.594780
     12          1           0       -0.554070    0.828680   -1.642170
     13          1           0       -0.097860    2.244120   -0.669670
 ---------------------------------------------------------------------
                    Distance matrix (angstroms):
                    1          2          3          4          5
     1  C    0.000000
     2  C    1.493419   0.000000
     3  H    2.142391   1.094327   0.000000
     4  H    2.137270   1.094062   1.776743   0.000000
     5  H    2.142394   1.094294   1.765469   1.776702   0.000000
     6  C    1.493474   2.567354   3.471551   2.986740   2.741835
     7  H    2.137335   2.985372   3.983437   3.006795   3.247953
     8  H    2.142555   3.472030   4.228371   3.984169   3.678788
     9  H    2.142435   2.742847   3.678042   3.251885   2.462821
    10  C    1.493478   2.567424   2.743000   2.985361   3.471995
    11  H    2.142685   2.740734   2.461704   3.245436   3.678413
    12  H    2.142448   3.471075   3.676595   3.983917   4.227568
    13  H    2.137414   2.988875   3.255170   3.009168   3.985623
                    6          7          8          9         10
     6  C    0.000000
     7  H    1.094114   0.000000
     8  H    1.094378   1.776765   0.000000
     9  H    1.094319   1.776771   1.765556   0.000000
    10  C    2.567227   2.986544   2.741744   3.471487   0.000000
    11  H    3.472610   3.983640   3.680408   4.229281   1.094398
    12  H    2.744098   3.254340   2.464115   3.678561   1.094414
    13  H    2.983250   3.004211   3.244814   3.981913   1.094165
                   11         12         13
    11  H    0.000000
    12  H    1.765603   0.000000
    13  H    1.776783   1.776895   0.000000
 Stoichiometry    C4H9(2)
 Framework group  C1[X(C4H9)]
 Deg. of freedom    33
 Full point group                 C1      NOp   1
 Largest Abelian subgroup         C1      NOp   1
 Largest concise Abelian subgroup C1      NOp   1
                         Standard orientation:                         
 ---------------------------------------------------------------------
 Center     Atomic      Atomic             Coordinates (Angstroms)
 Number     Number       Type             X           Y           Z
 ---------------------------------------------------------------------
      1          6           0        0.000093   -0.000034   -0.161577
      2          6           0        1.452478   -0.295888    0.021038
      3          1           0        1.716876   -1.249760   -0.445623
      4          1           0        1.700697   -0.348169    1.085288
      5          1           0        2.068945    0.480245   -0.442715
      6          6           0       -0.469972    1.405726    0.021020
      7          1           0       -0.548978    1.646769    1.085323
      8          1           0       -1.450388    1.551589   -0.442844
      9          1           0        0.223973    2.111674   -0.445469
     10          6           0       -0.982514   -1.109816    0.021025
     11          1           0       -0.616832   -2.033180   -0.438737
     12          1           0       -1.939372   -0.863511   -0.449612
     13          1           0       -1.155434   -1.295593    1.085348
 ---------------------------------------------------------------------
 Rotational constants (GHZ):           8.0457981           8.0446057           4.3763472
 Standard basis: CC-pVTZ (5D, 7F)
 There are   275 symmetry adapted cartesian basis functions of A   symmetry.
 There are   246 symmetry adapted basis functions of A   symmetry.
   246 basis functions,   361 primitive gaussians,   275 cartesian basis functions
    17 alpha electrons       16 beta electrons
       nuclear repulsion energy       125.6755608514 Hartrees.
 NAtoms=   13 NActive=   13 NUniq=   13 SFac= 1.00D+00 NAtFMM=   60 NAOKFM=F Big=F
 Integral buffers will be    131072 words long.
 Raffenetti 2 integral format.
 Two-electron integral symmetry is turned on.
 One-electron integrals computed using PRISM.
 NBasis=   246 RedAO= T EigKep=  7.06D-04  NBF=   246
 NBsUse=   246 1.00D-06 EigRej= -1.00D+00 NBFU=   246
 ExpMin= 1.03D-01 ExpMax= 8.24D+03 ExpMxC= 2.81D+02 IAcc=3 IRadAn=         5 AccDes= 0.00D+00
 Harris functional with IExCor= 1009 and IRadAn=       5 diagonalized for initial guess.
 HarFok:  IExCor= 1009 AccDes= 0.00D+00 IRadAn=         5 IDoV= 1 UseB2=F ITyADJ=14
 ICtDFT=  3500011 ScaDFX=  1.000000  1.000000  1.000000  1.000000
 FoFCou: FMM=F IPFlag=           0 FMFlag=      100000 FMFlg1=           0
         NFxFlg=           0 DoJE=T BraDBF=F KetDBF=T FulRan=T
         wScrn=  0.000000 ICntrl=       500 IOpCl=  0 I1Cent=   200000004 NGrid=           0
         NMat0=    1 NMatS0=      1 NMatT0=    0 NMatD0=    1 NMtDS0=    0 NMtDT0=    0
 Petite list used in FoFCou.
 Initial guess <Sx>= 0.0000 <Sy>= 0.0000 <Sz>= 0.5000 <S**2>= 0.7500 S= 0.5000
 Requested convergence on RMS density matrix=1.00D-08 within 900 cycles.
 Requested convergence on MAX density matrix=1.00D-06.
 Requested convergence on             energy=1.00D-06.
 No special actions if energy rises.
 Integral accuracy reduced to 1.0D-05 until final iterations.
 Initial convergence to 1.0D-05 achieved.  Increase integral accuracy.
 SCF Done:  E(UM062X) =  -157.759493303     A.U. after   13 cycles
            NFock= 13  Conv=0.41D-08     -V/T= 2.0065
 <Sx>= 0.0000 <Sy>= 0.0000 <Sz>= 0.5000 <S**2>= 0.7550 S= 0.5025
 <L.S>= 0.000000000000E+00
 Annihilation of the first spin contaminant:
 S**2 before annihilation     0.7550,   after     0.7500
 DoSCS=F DFT=T ScalE2(SS,OS)=  1.000000  1.000000
 Range of M.O.s used for correlation:     1   246
 NBasis=   246 NAE=    17 NBE=    16 NFC=     0 NFV=     0
 NROrb=    246 NOA=    17 NOB=    16 NVA=   229 NVB=   230

 **** Warning!!: The largest alpha MO coefficient is  0.12599175D+02


 **** Warning!!: The largest beta MO coefficient is  0.12408783D+02

 Symmetrizing basis deriv contribution to polar:
 IMax=3 JMax=2 DiffMx= 0.00D+00
