 Entering Gaussian System, Link 0=g16
 Input=nateC=C=C.com
 Output=nateC=C=C.log
 Initial command:
 /shared/centos7/gaussian/g16/l1.exe "/scratch/dinius.ab/QMscratch/Gau-218283.inp" -scrdir="/scratch/dinius.ab/QMscratch/"
 Default is to use a total of  20 processors:
                               20 via shared-memory
                                1 via Linda
 Entering Link 1 = /shared/centos7/gaussian/g16/l1.exe PID=    218284.
  
 Copyright (c) 1988,1990,1992,1993,1995,1998,2003,2009,2016,
            Gaussian, Inc.  All Rights Reserved.
  
 This is part of the Gaussian(R) 16 program.  It is based on
 the Gaussian(R) 09 system (copyright 2009, Gaussian, Inc.),
 the Gaussian(R) 03 system (copyright 2003, Gaussian, Inc.),
 the Gaussian(R) 98 system (copyright 1998, Gaussian, Inc.),
 the Gaussian(R) 94 system (copyright 1995, Gaussian, Inc.),
 the Gaussian 92(TM) system (copyright 1992, Gaussian, Inc.),
 the Gaussian 90(TM) system (copyright 1990, Gaussian, Inc.),
 the Gaussian 88(TM) system (copyright 1988, Gaussian, Inc.),
 the Gaussian 86(TM) system (copyright 1986, Carnegie Mellon
 University), and the Gaussian 82(TM) system (copyright 1983,
 Carnegie Mellon University). Gaussian is a federally registered
 trademark of Gaussian, Inc.
  
 This software contains proprietary and confidential information,
 including trade secrets, belonging to Gaussian, Inc.
  
 This software is provided under written license and may be
 used, copied, transmitted, or stored only in accord with that
 written license.
  
 The following legend is applicable only to US Government
 contracts under FAR:
  
                    RESTRICTED RIGHTS LEGEND
  
 Use, reproduction and disclosure by the US Government is
 subject to restrictions as set forth in subparagraphs (a)
 and (c) of the Commercial Computer Software - Restricted
 Rights clause in FAR 52.227-19.
  
 Gaussian, Inc.
 340 Quinnipiac St., Bldg. 40, Wallingford CT 06492
  
  
 ---------------------------------------------------------------
 Warning -- This program may not be used in any manner that
 competes with the business of Gaussian, Inc. or will provide
 assistance to any competitor of Gaussian, Inc.  The licensee
 of this program is prohibited from giving any competitor of
 Gaussian, Inc. access to this program.  By using this program,
 the user acknowledges that Gaussian, Inc. is engaged in the
 business of creating and licensing software in the field of
 computational chemistry and represents and warrants to the
 licensee that it is not a competitor of Gaussian, Inc. and that
 it will not use this program in any manner prohibited above.
 ---------------------------------------------------------------
  

 Cite this work as:
 Gaussian 16, Revision A.03,
 M. J. Frisch, G. W. Trucks, H. B. Schlegel, G. E. Scuseria, 
 M. A. Robb, J. R. Cheeseman, G. Scalmani, V. Barone, 
 G. A. Petersson, H. Nakatsuji, X. Li, M. Caricato, A. V. Marenich, 
 J. Bloino, B. G. Janesko, R. Gomperts, B. Mennucci, H. P. Hratchian, 
 J. V. Ortiz, A. F. Izmaylov, J. L. Sonnenberg, D. Williams-Young, 
 F. Ding, F. Lipparini, F. Egidi, J. Goings, B. Peng, A. Petrone, 
 T. Henderson, D. Ranasinghe, V. G. Zakrzewski, J. Gao, N. Rega, 
 G. Zheng, W. Liang, M. Hada, M. Ehara, K. Toyota, R. Fukuda, 
 J. Hasegawa, M. Ishida, T. Nakajima, Y. Honda, O. Kitao, H. Nakai, 
 T. Vreven, K. Throssell, J. A. Montgomery, Jr., J. E. Peralta, 
 F. Ogliaro, M. J. Bearpark, J. J. Heyd, E. N. Brothers, K. N. Kudin, 
 V. N. Staroverov, T. A. Keith, R. Kobayashi, J. Normand, 
 K. Raghavachari, A. P. Rendell, J. C. Burant, S. S. Iyengar, 
 J. Tomasi, M. Cossi, J. M. Millam, M. Klene, C. Adamo, R. Cammi, 
 J. W. Ochterski, R. L. Martin, K. Morokuma, O. Farkas, 
 J. B. Foresman, and D. J. Fox, Gaussian, Inc., Wallingford CT, 2016.
 
 ******************************************
 Gaussian 16:  EM64L-G16RevA.03 25-Dec-2016
                 5-Apr-2019 
 ******************************************
 ----------------------------------------------------------------------
 #m062x/cc-pVTZ Opt=(calcfc,verytight,gdiis,maxcycles=900) freq IOP(2/1
 6=3) scf=(maxcycle=900)
 ----------------------------------------------------------------------

 Warning!  Use of Opt=GDIIS is deprecated since it is seldom a good choice.

 1/6=900,7=1,10=4,18=20,19=11,26=3,38=1/1,3;
 2/9=110,12=2,16=3,17=6,18=5,40=1/2;
 3/5=16,6=1,11=2,25=1,30=1,71=2,74=-55,140=1/1,2,3;
 4//1;
 5/5=2,7=900,38=5/2;
 8/6=4,10=90,11=11/1;
 11/6=1,8=1,9=11,15=111,16=1/1,2,10;
 10/6=1,13=1/2;
 6/7=2,8=2,9=2,10=2,28=1/1;
 7/10=1,18=20,25=1/1,2,3,16;
 1/6=900,7=1,10=4,18=20,19=11,26=3/3(2);
 2/9=110,16=3/2;
 99//99;
 2/9=110,16=3/2;
 3/5=16,6=1,11=2,25=1,30=1,71=1,74=-55/1,2,3;
 4/5=5,16=3,69=1/1;
 5/5=2,7=900,38=5/2;
 7//1,2,3,16;
 1/6=900,7=1,18=20,19=11,26=3/3(-5);
 2/9=110,16=3/2;
 6/7=2,8=2,9=2,10=2,19=2,28=1/1;
 99/9=1/99;
 -----
 Title
 -----
 Symbolic Z-matrix:
 Charge =  0 Multiplicity = 2
 C                    -4.4562    0.72141  -0.00024 
 C                    -3.09182   0.18868  -0.12081 
 C                    -1.86543   0.8582    0.00024 
 H                    -4.96201  -0.18443  -0.31385 
 H                    -5.05471   1.56894   0.31317 
 H                    -1.32605   1.12649   0.90126 
 H                    -1.30047   0.64819  -0.90058 
 

 GradGradGradGradGradGradGradGradGradGradGradGradGradGradGradGradGradGrad
 Berny optimization.
 Initialization pass.
                           ----------------------------
                           !    Initial Parameters    !
                           ! (Angstroms and Degrees)  !
 --------------------------                            --------------------------
 ! Name  Definition              Value          Derivative Info.                !
 --------------------------------------------------------------------------------
 ! R1    R(1,2)                  1.4697         calculate D2E/DX2 analytically  !
 ! R2    R(1,4)                  1.0839         calculate D2E/DX2 analytically  !
 ! R3    R(1,5)                  1.0839         calculate D2E/DX2 analytically  !
 ! R4    R(2,3)                  1.4025         calculate D2E/DX2 analytically  !
 ! R5    R(3,6)                  1.0839         calculate D2E/DX2 analytically  !
 ! R6    R(3,7)                  1.0839         calculate D2E/DX2 analytically  !
 ! A1    A(2,1,4)               96.117          calculate D2E/DX2 analytically  !
 ! A2    A(2,1,5)              145.067          calculate D2E/DX2 analytically  !
 ! A3    A(4,1,5)              118.6524         calculate D2E/DX2 analytically  !
 ! A4    A(1,2,3)              129.1744         calculate D2E/DX2 analytically  !
 ! A5    A(2,3,6)              128.6885         calculate D2E/DX2 analytically  !
 ! A6    A(2,3,7)              106.9519         calculate D2E/DX2 analytically  !
 ! A7    A(6,3,7)              118.6515         calculate D2E/DX2 analytically  !
 ! D1    D(4,1,2,3)            172.793          calculate D2E/DX2 analytically  !
 ! D2    D(5,1,2,3)            -12.5828         calculate D2E/DX2 analytically  !
 ! D3    D(2,1,4,5)            176.4951         calculate D2E/DX2 analytically  !
 ! D4    D(1,2,3,6)             81.3716         calculate D2E/DX2 analytically  !
 ! D5    D(1,2,3,7)           -126.2184         calculate D2E/DX2 analytically  !
 ! D6    D(2,3,6,7)            149.6797         calculate D2E/DX2 analytically  !
 --------------------------------------------------------------------------------
 Trust Radius=3.00D-01 FncErr=1.00D-07 GrdErr=1.00D-06 EigMax=2.50D+02 EigMin=1.00D-04
 Number of steps in this run=    100 maximum allowed number of steps=    100.
 GradGradGradGradGradGradGradGradGradGradGradGradGradGradGradGradGradGrad

                          Input orientation:                          
 ---------------------------------------------------------------------
 Center     Atomic      Atomic             Coordinates (Angstroms)
 Number     Number       Type             X           Y           Z
 ---------------------------------------------------------------------
      1          6           0       -4.456200    0.721410   -0.000240
      2          6           0       -3.091820    0.188680   -0.120810
      3          6           0       -1.865430    0.858200    0.000240
      4          1           0       -4.962010   -0.184430   -0.313850
      5          1           0       -5.054710    1.568940    0.313170
      6          1           0       -1.326050    1.126490    0.901260
      7          1           0       -1.300470    0.648190   -0.900580
 ---------------------------------------------------------------------
                    Distance matrix (angstroms):
                    1          2          3          4          5
     1  C    0.000000
     2  C    1.469650   0.000000
     3  C    2.594379   1.402477   0.000000
     4  H    1.083855   1.916791   3.282459   0.000000
     5  H    1.083858   2.438523   3.282466   1.864418   0.000000
     6  H    3.282473   2.245453   1.083858   4.051569   3.800594
     7  H    3.282469   2.007019   1.083864   3.800577   4.051578
                    6          7
     6  H    0.000000
     7  H    1.864417   0.000000
 Stoichiometry    C3H4(2)
 Framework group  C1[X(C3H4)]
 Deg. of freedom    15
 Full point group                 C1      NOp   1
 Largest Abelian subgroup         C1      NOp   1
 Largest concise Abelian subgroup C1      NOp   1
                         Standard orientation:                         
 ---------------------------------------------------------------------
 Center     Atomic      Atomic             Coordinates (Angstroms)
 Number     Number       Type             X           Y           Z
 ---------------------------------------------------------------------
      1          6           0        1.307880    0.153873    0.055685
      2          6           0       -0.028525   -0.421218   -0.152071
      3          6           0       -1.286484    0.162044    0.058371
      4          1           0        1.857733   -0.761322   -0.130922
      5          1           0        1.863880    1.065584    0.241141
      6          1           0       -1.837979    0.834911   -0.588043
      7          1           0       -1.840860   -0.507366    0.705918
 ---------------------------------------------------------------------
 Rotational constants (GHZ):          75.5438593           9.1189372           8.4707964
 Standard basis: CC-pVTZ (5D, 7F)
 The combination of multiplicity 2 and    22 electrons is impossible.
 Error termination via Lnk1e in /shared/centos7/gaussian/g16/l301.exe at Fri Apr  5 10:19:40 2019.
 Job cpu time:       0 days  0 hours  0 minutes 26.6 seconds.
 Elapsed time:       0 days  0 hours  0 minutes  1.5 seconds.
 File lengths (MBytes):  RWF=    272 Int=      0 D2E=      0 Chk=     32 Scr=     32
