 Entering Gaussian System, Link 0=g16
 Input=nateCC(C)C.com
 Output=nateCC(C)C.log
 Initial command:
 /shared/centos7/gaussian/g16/l1.exe "/scratch/dinius.ab/QMscratch/Gau-218966.inp" -scrdir="/scratch/dinius.ab/QMscratch/"
 Default is to use a total of  20 processors:
                               20 via shared-memory
                                1 via Linda
 Entering Link 1 = /shared/centos7/gaussian/g16/l1.exe PID=    218967.
  
 Copyright (c) 1988,1990,1992,1993,1995,1998,2003,2009,2016,
            Gaussian, Inc.  All Rights Reserved.
  
 This is part of the Gaussian(R) 16 program.  It is based on
 the Gaussian(R) 09 system (copyright 2009, Gaussian, Inc.),
 the Gaussian(R) 03 system (copyright 2003, Gaussian, Inc.),
 the Gaussian(R) 98 system (copyright 1998, Gaussian, Inc.),
 the Gaussian(R) 94 system (copyright 1995, Gaussian, Inc.),
 the Gaussian 92(TM) system (copyright 1992, Gaussian, Inc.),
 the Gaussian 90(TM) system (copyright 1990, Gaussian, Inc.),
 the Gaussian 88(TM) system (copyright 1988, Gaussian, Inc.),
 the Gaussian 86(TM) system (copyright 1986, Carnegie Mellon
 University), and the Gaussian 82(TM) system (copyright 1983,
 Carnegie Mellon University). Gaussian is a federally registered
 trademark of Gaussian, Inc.
  
 This software contains proprietary and confidential information,
 including trade secrets, belonging to Gaussian, Inc.
  
 This software is provided under written license and may be
 used, copied, transmitted, or stored only in accord with that
 written license.
  
 The following legend is applicable only to US Government
 contracts under FAR:
  
                    RESTRICTED RIGHTS LEGEND
  
 Use, reproduction and disclosure by the US Government is
 subject to restrictions as set forth in subparagraphs (a)
 and (c) of the Commercial Computer Software - Restricted
 Rights clause in FAR 52.227-19.
  
 Gaussian, Inc.
 340 Quinnipiac St., Bldg. 40, Wallingford CT 06492
  
  
 ---------------------------------------------------------------
 Warning -- This program may not be used in any manner that
 competes with the business of Gaussian, Inc. or will provide
 assistance to any competitor of Gaussian, Inc.  The licensee
 of this program is prohibited from giving any competitor of
 Gaussian, Inc. access to this program.  By using this program,
 the user acknowledges that Gaussian, Inc. is engaged in the
 business of creating and licensing software in the field of
 computational chemistry and represents and warrants to the
 licensee that it is not a competitor of Gaussian, Inc. and that
 it will not use this program in any manner prohibited above.
 ---------------------------------------------------------------
  

 Cite this work as:
 Gaussian 16, Revision A.03,
 M. J. Frisch, G. W. Trucks, H. B. Schlegel, G. E. Scuseria, 
 M. A. Robb, J. R. Cheeseman, G. Scalmani, V. Barone, 
 G. A. Petersson, H. Nakatsuji, X. Li, M. Caricato, A. V. Marenich, 
 J. Bloino, B. G. Janesko, R. Gomperts, B. Mennucci, H. P. Hratchian, 
 J. V. Ortiz, A. F. Izmaylov, J. L. Sonnenberg, D. Williams-Young, 
 F. Ding, F. Lipparini, F. Egidi, J. Goings, B. Peng, A. Petrone, 
 T. Henderson, D. Ranasinghe, V. G. Zakrzewski, J. Gao, N. Rega, 
 G. Zheng, W. Liang, M. Hada, M. Ehara, K. Toyota, R. Fukuda, 
 J. Hasegawa, M. Ishida, T. Nakajima, Y. Honda, O. Kitao, H. Nakai, 
 T. Vreven, K. Throssell, J. A. Montgomery, Jr., J. E. Peralta, 
 F. Ogliaro, M. J. Bearpark, J. J. Heyd, E. N. Brothers, K. N. Kudin, 
 V. N. Staroverov, T. A. Keith, R. Kobayashi, J. Normand, 
 K. Raghavachari, A. P. Rendell, J. C. Burant, S. S. Iyengar, 
 J. Tomasi, M. Cossi, J. M. Millam, M. Klene, C. Adamo, R. Cammi, 
 J. W. Ochterski, R. L. Martin, K. Morokuma, O. Farkas, 
 J. B. Foresman, and D. J. Fox, Gaussian, Inc., Wallingford CT, 2016.
 
 ******************************************
 Gaussian 16:  EM64L-G16RevA.03 25-Dec-2016
                 5-Apr-2019 
 ******************************************
 ----------------------------------------------------------------------
 ##m062x/cc-pVTZ Opt=(calcfc,verytight,gdiis,maxcycles=900) freq IOP(2/
 16=3) scf=(maxcycle=900)
 ----------------------------------------------------------------------

 Warning!  Use of Opt=GDIIS is deprecated since it is seldom a good choice.

 1/6=900,7=1,10=4,18=20,19=11,26=3,38=1/1,3;
 2/9=110,12=2,16=3,17=6,18=5,40=1/2;
 3/5=16,6=1,11=2,25=1,30=1,71=2,74=-55,140=1/1,2,3;
 4//1;
 5/5=2,7=900,38=5/2;
 8/6=4,10=90,11=11/1;
 11/6=1,8=1,9=11,15=111,16=1/1,2,10;
 10/6=1,13=1/2;
 6/7=2,8=2,9=2,10=2,28=1/1;
 7/10=1,18=20,25=1/1,2,3,16;
 1/6=900,7=1,10=4,18=20,19=11,26=3/3(2);
 2/9=110,16=3/2;
 99//99;
 2/9=110,16=3/2;
 3/5=16,6=1,11=2,25=1,30=1,71=1,74=-55/1,2,3;
 4/5=5,16=3,69=1/1;
 5/5=2,7=900,38=5/2;
 7//1,2,3,16;
 1/6=900,7=1,18=20,19=11,26=3/3(-5);
 2/9=110,16=3/2;
 6/7=2,8=2,9=2,10=2,19=2,28=1/1;
 99/9=1/99;
 -----
 Title
 -----
 Symbolic Z-matrix:
 Charge =  0 Multiplicity = 2
 C                    -1.64913   1.04841   0.18612 
 C                    -2.59156   1.9226    0.94633 
 H                    -3.20396   2.52023   0.26416 
 H                    -2.03818   2.60093   1.60254 
 H                    -3.27081   1.3221    1.55911 
 C                    -1.03861  -0.12094   0.88637 
 H                    -0.22047   0.20674   1.53472 
 H                    -0.64373  -0.84349   0.1655 
 H                    -1.78251  -0.63924   1.49916 
 C                    -0.93804   1.62315  -0.99477 
 H                    -1.6148    2.23934  -1.59478 
 H                    -0.55407   0.82868  -1.64217 
 H                    -0.09786   2.24412  -0.66967 
 

 GradGradGradGradGradGradGradGradGradGradGradGradGradGradGradGradGradGrad
 Berny optimization.
 Initialization pass.
                           ----------------------------
                           !    Initial Parameters    !
                           ! (Angstroms and Degrees)  !
 --------------------------                            --------------------------
 ! Name  Definition              Value          Derivative Info.                !
 --------------------------------------------------------------------------------
 ! R1    R(1,2)                  1.4934         calculate D2E/DX2 analytically  !
 ! R2    R(1,6)                  1.4935         calculate D2E/DX2 analytically  !
 ! R3    R(1,10)                 1.4935         calculate D2E/DX2 analytically  !
 ! R4    R(2,3)                  1.0943         calculate D2E/DX2 analytically  !
 ! R5    R(2,4)                  1.0941         calculate D2E/DX2 analytically  !
 ! R6    R(2,5)                  1.0943         calculate D2E/DX2 analytically  !
 ! R7    R(6,7)                  1.0941         calculate D2E/DX2 analytically  !
 ! R8    R(6,8)                  1.0944         calculate D2E/DX2 analytically  !
 ! R9    R(6,9)                  1.0943         calculate D2E/DX2 analytically  !
 ! R10   R(10,11)                1.0944         calculate D2E/DX2 analytically  !
 ! R11   R(10,12)                1.0944         calculate D2E/DX2 analytically  !
 ! R12   R(10,13)                1.0942         calculate D2E/DX2 analytically  !
 ! A1    A(2,1,6)              118.5299         calculate D2E/DX2 analytically  !
 ! A2    A(2,1,10)             118.5349         calculate D2E/DX2 analytically  !
 ! A3    A(6,1,10)             118.5166         calculate D2E/DX2 analytically  !
 ! A4    A(1,2,3)              110.8242         calculate D2E/DX2 analytically  !
 ! A5    A(1,2,4)              110.4297         calculate D2E/DX2 analytically  !
 ! A6    A(1,2,5)              110.8265         calculate D2E/DX2 analytically  !
 ! A7    A(3,2,4)              108.5631         calculate D2E/DX2 analytically  !
 ! A8    A(3,2,5)              107.5414         calculate D2E/DX2 analytically  !
 ! A9    A(4,2,5)              108.5617         calculate D2E/DX2 analytically  !
 ! A10   A(1,6,7)              110.428          calculate D2E/DX2 analytically  !
 ! A11   A(1,6,8)              110.8304         calculate D2E/DX2 analytically  !
 ! A12   A(1,6,9)              110.8244         calculate D2E/DX2 analytically  !
 ! A13   A(7,6,8)              108.5576         calculate D2E/DX2 analytically  !
 ! A14   A(7,6,9)              108.5624         calculate D2E/DX2 analytically  !
 ! A15   A(8,6,9)              107.5437         calculate D2E/DX2 analytically  !
 ! A16   A(1,10,11)            110.8394         calculate D2E/DX2 analytically  !
 ! A17   A(1,10,12)            110.8193         calculate D2E/DX2 analytically  !
 ! A18   A(1,10,13)            110.4309         calculate D2E/DX2 analytically  !
 ! A19   A(11,10,12)           107.5397         calculate D2E/DX2 analytically  !
 ! A20   A(11,10,13)           108.5541         calculate D2E/DX2 analytically  !
 ! A21   A(12,10,13)           108.5628         calculate D2E/DX2 analytically  !
 ! D1    D(6,1,2,3)           -161.5235         calculate D2E/DX2 analytically  !
 ! D2    D(6,1,2,4)             78.1363         calculate D2E/DX2 analytically  !
 ! D3    D(6,1,2,5)            -42.2038         calculate D2E/DX2 analytically  !
 ! D4    D(10,1,2,3)            42.3937         calculate D2E/DX2 analytically  !
 ! D5    D(10,1,2,4)           -77.9466         calculate D2E/DX2 analytically  !
 ! D6    D(10,1,2,5)           161.7134         calculate D2E/DX2 analytically  !
 ! D7    D(2,1,6,7)            -77.9571         calculate D2E/DX2 analytically  !
 ! D8    D(2,1,6,8)            161.7066         calculate D2E/DX2 analytically  !
 ! D9    D(2,1,6,9)             42.3813         calculate D2E/DX2 analytically  !
 ! D10   D(10,1,6,7)            78.1302         calculate D2E/DX2 analytically  !
 ! D11   D(10,1,6,8)           -42.2061         calculate D2E/DX2 analytically  !
 ! D12   D(10,1,6,9)          -161.5314         calculate D2E/DX2 analytically  !
 ! D13   D(2,1,10,11)          -41.9467         calculate D2E/DX2 analytically  !
 ! D14   D(2,1,10,12)         -161.2695         calculate D2E/DX2 analytically  !
 ! D15   D(2,1,10,13)           78.393          calculate D2E/DX2 analytically  !
 ! D16   D(6,1,10,11)          161.9673         calculate D2E/DX2 analytically  !
 ! D17   D(6,1,10,12)           42.6445         calculate D2E/DX2 analytically  !
 ! D18   D(6,1,10,13)          -77.6931         calculate D2E/DX2 analytically  !
 --------------------------------------------------------------------------------
 Trust Radius=3.00D-01 FncErr=1.00D-07 GrdErr=1.00D-06 EigMax=2.50D+02 EigMin=1.00D-04
 Number of steps in this run=    100 maximum allowed number of steps=    100.
 GradGradGradGradGradGradGradGradGradGradGradGradGradGradGradGradGradGrad

                          Input orientation:                          
 ---------------------------------------------------------------------
 Center     Atomic      Atomic             Coordinates (Angstroms)
 Number     Number       Type             X           Y           Z
 ---------------------------------------------------------------------
      1          6           0       -1.649130    1.048410    0.186120
      2          6           0       -2.591560    1.922600    0.946330
      3          1           0       -3.203960    2.520230    0.264160
      4          1           0       -2.038180    2.600930    1.602540
      5          1           0       -3.270810    1.322100    1.559110
      6          6           0       -1.038610   -0.120940    0.886370
      7          1           0       -0.220470    0.206740    1.534720
      8          1           0       -0.643730   -0.843490    0.165500
      9          1           0       -1.782510   -0.639240    1.499160
     10          6           0       -0.938040    1.623150   -0.994770
     11          1           0       -1.614800    2.239340   -1.594780
     12          1           0       -0.554070    0.828680   -1.642170
     13          1           0       -0.097860    2.244120   -0.669670
 ---------------------------------------------------------------------
                    Distance matrix (angstroms):
                    1          2          3          4          5
     1  C    0.000000
     2  C    1.493419   0.000000
     3  H    2.142391   1.094327   0.000000
     4  H    2.137270   1.094062   1.776743   0.000000
     5  H    2.142394   1.094294   1.765469   1.776702   0.000000
     6  C    1.493474   2.567354   3.471551   2.986740   2.741835
     7  H    2.137335   2.985372   3.983437   3.006795   3.247953
     8  H    2.142555   3.472030   4.228371   3.984169   3.678788
     9  H    2.142435   2.742847   3.678042   3.251885   2.462821
    10  C    1.493478   2.567424   2.743000   2.985361   3.471995
    11  H    2.142685   2.740734   2.461704   3.245436   3.678413
    12  H    2.142448   3.471075   3.676595   3.983917   4.227568
    13  H    2.137414   2.988875   3.255170   3.009168   3.985623
                    6          7          8          9         10
     6  C    0.000000
     7  H    1.094114   0.000000
     8  H    1.094378   1.776765   0.000000
     9  H    1.094319   1.776771   1.765556   0.000000
    10  C    2.567227   2.986544   2.741744   3.471487   0.000000
    11  H    3.472610   3.983640   3.680408   4.229281   1.094398
    12  H    2.744098   3.254340   2.464115   3.678561   1.094414
    13  H    2.983250   3.004211   3.244814   3.981913   1.094165
                   11         12         13
    11  H    0.000000
    12  H    1.765603   0.000000
    13  H    1.776783   1.776895   0.000000
 Stoichiometry    C4H9(2)
 Framework group  C1[X(C4H9)]
 Deg. of freedom    33
 Full point group                 C1      NOp   1
 Largest Abelian subgroup         C1      NOp   1
 Largest concise Abelian subgroup C1      NOp   1
                         Standard orientation:                         
 ---------------------------------------------------------------------
 Center     Atomic      Atomic             Coordinates (Angstroms)
 Number     Number       Type             X           Y           Z
 ---------------------------------------------------------------------
      1          6           0        0.000093   -0.000034   -0.161577
      2          6           0        1.452478   -0.295888    0.021038
      3          1           0        1.716876   -1.249760   -0.445623
      4          1           0        1.700697   -0.348169    1.085288
      5          1           0        2.068945    0.480245   -0.442715
      6          6           0       -0.469972    1.405726    0.021020
      7          1           0       -0.548978    1.646769    1.085323
      8          1           0       -1.450388    1.551589   -0.442844
      9          1           0        0.223973    2.111674   -0.445469
     10          6           0       -0.982514   -1.109816    0.021025
     11          1           0       -0.616832   -2.033180   -0.438737
     12          1           0       -1.939372   -0.863511   -0.449612
     13          1           0       -1.155434   -1.295593    1.085348
 ---------------------------------------------------------------------
 Rotational constants (GHZ):           8.0457981           8.0446057           4.3763472
 Standard basis: CC-pVTZ (5D, 7F)
 There are   275 symmetry adapted cartesian basis functions of A   symmetry.
 There are   246 symmetry adapted basis functions of A   symmetry.
   246 basis functions,   361 primitive gaussians,   275 cartesian basis functions
    17 alpha electrons       16 beta electrons
       nuclear repulsion energy       125.6755608514 Hartrees.
 NAtoms=   13 NActive=   13 NUniq=   13 SFac= 1.00D+00 NAtFMM=   60 NAOKFM=F Big=F
 Integral buffers will be    131072 words long.
 Raffenetti 2 integral format.
 Two-electron integral symmetry is turned on.
 One-electron integrals computed using PRISM.
 NBasis=   246 RedAO= T EigKep=  7.06D-04  NBF=   246
 NBsUse=   246 1.00D-06 EigRej= -1.00D+00 NBFU=   246
 ExpMin= 1.03D-01 ExpMax= 8.24D+03 ExpMxC= 2.81D+02 IAcc=3 IRadAn=         5 AccDes= 0.00D+00
 Harris functional with IExCor= 1009 and IRadAn=       5 diagonalized for initial guess.
 HarFok:  IExCor= 1009 AccDes= 0.00D+00 IRadAn=         5 IDoV= 1 UseB2=F ITyADJ=14
 ICtDFT=  3500011 ScaDFX=  1.000000  1.000000  1.000000  1.000000
 FoFCou: FMM=F IPFlag=           0 FMFlag=      100000 FMFlg1=           0
         NFxFlg=           0 DoJE=T BraDBF=F KetDBF=T FulRan=T
         wScrn=  0.000000 ICntrl=       500 IOpCl=  0 I1Cent=   200000004 NGrid=           0
         NMat0=    1 NMatS0=      1 NMatT0=    0 NMatD0=    1 NMtDS0=    0 NMtDT0=    0
 Petite list used in FoFCou.
 Initial guess <Sx>= 0.0000 <Sy>= 0.0000 <Sz>= 0.5000 <S**2>= 0.7500 S= 0.5000
 Requested convergence on RMS density matrix=1.00D-08 within 900 cycles.
 Requested convergence on MAX density matrix=1.00D-06.
 Requested convergence on             energy=1.00D-06.
 No special actions if energy rises.
 Integral accuracy reduced to 1.0D-05 until final iterations.
 Initial convergence to 1.0D-05 achieved.  Increase integral accuracy.
 SCF Done:  E(UM062X) =  -157.759493303     A.U. after   13 cycles
            NFock= 13  Conv=0.41D-08     -V/T= 2.0065
 <Sx>= 0.0000 <Sy>= 0.0000 <Sz>= 0.5000 <S**2>= 0.7550 S= 0.5025
 <L.S>= 0.000000000000E+00
 Annihilation of the first spin contaminant:
 S**2 before annihilation     0.7550,   after     0.7500
 DoSCS=F DFT=T ScalE2(SS,OS)=  1.000000  1.000000
 Range of M.O.s used for correlation:     1   246
 NBasis=   246 NAE=    17 NBE=    16 NFC=     0 NFV=     0
 NROrb=    246 NOA=    17 NOB=    16 NVA=   229 NVB=   230

 **** Warning!!: The largest alpha MO coefficient is  0.12599175D+02


 **** Warning!!: The largest beta MO coefficient is  0.12408783D+02

 Symmetrizing basis deriv contribution to polar:
 IMax=3 JMax=2 DiffMx= 0.00D+00
 G2DrvN: will do    14 centers at a time, making    1 passes.
 Calling FoFCou, ICntrl=  3107 FMM=F I1Cent=   0 AccDes= 0.00D+00.
 End of G2Drv F.D. properties file   721 does not exist.
 End of G2Drv F.D. properties file   722 does not exist.
 End of G2Drv F.D. properties file   788 does not exist.
          IDoAtm=1111111111111
          Differentiating once with respect to nuclear coordinates.
 Keep R1 and R2 ints in memory in canonical form, NReq=945072072.
          There are    42 degrees of freedom in the 1st order CPHF.  IDoFFX=6 NUNeed=     0.
     36 vectors produced by pass  0 Test12= 1.80D-14 2.38D-09 XBig12= 1.28D-01 1.49D-01.
 AX will form    36 AO Fock derivatives at one time.
     36 vectors produced by pass  1 Test12= 1.80D-14 2.38D-09 XBig12= 8.55D-03 2.74D-02.
     36 vectors produced by pass  2 Test12= 1.80D-14 2.38D-09 XBig12= 2.22D-04 6.28D-03.
     36 vectors produced by pass  3 Test12= 1.80D-14 2.38D-09 XBig12= 2.86D-06 3.38D-04.
     36 vectors produced by pass  4 Test12= 1.80D-14 2.38D-09 XBig12= 3.51D-08 3.97D-05.
     36 vectors produced by pass  5 Test12= 1.80D-14 2.38D-09 XBig12= 4.25D-10 5.03D-06.
     35 vectors produced by pass  6 Test12= 1.80D-14 2.38D-09 XBig12= 3.31D-12 2.45D-07.
      9 vectors produced by pass  7 Test12= 1.80D-14 2.38D-09 XBig12= 2.23D-14 2.36D-08.
 InvSVY:  IOpt=1 It=  1 EMax= 1.78D-15
 Solved reduced A of dimension   260 with    36 vectors.
 End of Minotr F.D. properties file   721 does not exist.
 End of Minotr F.D. properties file   722 does not exist.
 End of Minotr F.D. properties file   788 does not exist.

 **********************************************************************

            Population analysis using the SCF density.

 **********************************************************************

 Orbital symmetries:
 Alpha Orbitals:
       Occupied  (A) (A) (A) (A) (A) (A) (A) (A) (A) (A) (A) (A)
                 (A) (A) (A) (A) (A)
       Virtual   (A) (A) (A) (A) (A) (A) (A) (A) (A) (A) (A) (A)
                 (A) (A) (A) (A) (A) (A) (A) (A) (A) (A) (A) (A)
                 (A) (A) (A) (A) (A) (A) (A) (A) (A) (A) (A) (A)
                 (A) (A) (A) (A) (A) (A) (A) (A) (A) (A) (A) (A)
                 (A) (A) (A) (A) (A) (A) (A) (A) (A) (A) (A) (A)
                 (A) (A) (A) (A) (A) (A) (A) (A) (A) (A) (A) (A)
                 (A) (A) (A) (A) (A) (A) (A) (A) (A) (A) (A) (A)
                 (A) (A) (A) (A) (A) (A) (A) (A) (A) (A) (A) (A)
                 (A) (A) (A) (A) (A) (A) (A) (A) (A) (A) (A) (A)
                 (A) (A) (A) (A) (A) (A) (A) (A) (A) (A) (A) (A)
                 (A) (A) (A) (A) (A) (A) (A) (A) (A) (A) (A) (A)
                 (A) (A) (A) (A) (A) (A) (A) (A) (A) (A) (A) (A)
                 (A) (A) (A) (A) (A) (A) (A) (A) (A) (A) (A) (A)
                 (A) (A) (A) (A) (A) (A) (A) (A) (A) (A) (A) (A)
                 (A) (A) (A) (A) (A) (A) (A) (A) (A) (A) (A) (A)
                 (A) (A) (A) (A) (A) (A) (A) (A) (A) (A) (A) (A)
                 (A) (A) (A) (A) (A) (A) (A) (A) (A) (A) (A) (A)
                 (A) (A) (A) (A) (A) (A) (A) (A) (A) (A) (A) (A)
                 (A) (A) (A) (A) (A) (A) (A) (A) (A) (A) (A) (A)
                 (A)
 Beta  Orbitals:
       Occupied  (A) (A) (A) (A) (A) (A) (A) (A) (A) (A) (A) (A)
                 (A) (A) (A) (A)
       Virtual   (A) (A) (A) (A) (A) (A) (A) (A) (A) (A) (A) (A)
                 (A) (A) (A) (A) (A) (A) (A) (A) (A) (A) (A) (A)
                 (A) (A) (A) (A) (A) (A) (A) (A) (A) (A) (A) (A)
                 (A) (A) (A) (A) (A) (A) (A) (A) (A) (A) (A) (A)
                 (A) (A) (A) (A) (A) (A) (A) (A) (A) (A) (A) (A)
                 (A) (A) (A) (A) (A) (A) (A) (A) (A) (A) (A) (A)
                 (A) (A) (A) (A) (A) (A) (A) (A) (A) (A) (A) (A)
                 (A) (A) (A) (A) (A) (A) (A) (A) (A) (A) (A) (A)
                 (A) (A) (A) (A) (A) (A) (A) (A) (A) (A) (A) (A)
                 (A) (A) (A) (A) (A) (A) (A) (A) (A) (A) (A) (A)
                 (A) (A) (A) (A) (A) (A) (A) (A) (A) (A) (A) (A)
                 (A) (A) (A) (A) (A) (A) (A) (A) (A) (A) (A) (A)
                 (A) (A) (A) (A) (A) (A) (A) (A) (A) (A) (A) (A)
                 (A) (A) (A) (A) (A) (A) (A) (A) (A) (A) (A) (A)
                 (A) (A) (A) (A) (A) (A) (A) (A) (A) (A) (A) (A)
                 (A) (A) (A) (A) (A) (A) (A) (A) (A) (A) (A) (A)
                 (A) (A) (A) (A) (A) (A) (A) (A) (A) (A) (A) (A)
                 (A) (A) (A) (A) (A) (A) (A) (A) (A) (A) (A) (A)
                 (A) (A) (A) (A) (A) (A) (A) (A) (A) (A) (A) (A)
                 (A) (A)
 The electronic state is 2-A.
 Alpha  occ. eigenvalues --  -10.53831 -10.52362 -10.52360 -10.52358  -0.90382
 Alpha  occ. eigenvalues --   -0.78243  -0.78240  -0.60911  -0.52085  -0.50686
 Alpha  occ. eigenvalues --   -0.50684  -0.45554  -0.45547  -0.42645  -0.39950
 Alpha  occ. eigenvalues --   -0.39949  -0.22222
 Alpha virt. eigenvalues --    0.06832   0.11835   0.11835   0.13631   0.13633
 Alpha virt. eigenvalues --    0.13781   0.17922   0.17929   0.18531   0.20698
 Alpha virt. eigenvalues --    0.23746   0.23760   0.28938   0.29107   0.29109
 Alpha virt. eigenvalues --    0.36952   0.36955   0.40541   0.40547   0.40717
 Alpha virt. eigenvalues --    0.41278   0.42108   0.49025   0.49031   0.50315
 Alpha virt. eigenvalues --    0.51083   0.51096   0.51882   0.52105   0.53853
 Alpha virt. eigenvalues --    0.53859   0.56087   0.58252   0.58267   0.66259
 Alpha virt. eigenvalues --    0.66307   0.68860   0.79094   0.79159   0.81161
 Alpha virt. eigenvalues --    0.81255   0.81451   0.87229   0.92314   0.92327
 Alpha virt. eigenvalues --    0.96783   0.96793   0.99724   1.01471   1.02498
 Alpha virt. eigenvalues --    1.02509   1.07355   1.07381   1.07685   1.11998
 Alpha virt. eigenvalues --    1.19716   1.19870   1.19872   1.21181   1.21188
 Alpha virt. eigenvalues --    1.24648   1.25255   1.25279   1.27904   1.27946
 Alpha virt. eigenvalues --    1.29920   1.30809   1.36277   1.36282   1.37792
 Alpha virt. eigenvalues --    1.38123   1.38131   1.41846   1.41858   1.48320
 Alpha virt. eigenvalues --    1.52118   1.52591   1.54509   1.54515   1.59312
 Alpha virt. eigenvalues --    1.60202   1.60212   1.70942   1.70995   2.14310
 Alpha virt. eigenvalues --    2.20138   2.20155   2.25815   2.28810   2.28842
 Alpha virt. eigenvalues --    2.35903   2.35945   2.38155   2.40230   2.52955
 Alpha virt. eigenvalues --    2.54515   2.54531   2.61938   2.62044   2.63982
 Alpha virt. eigenvalues --    2.63989   2.68549   2.68557   2.79280   2.79283
 Alpha virt. eigenvalues --    2.84022   2.84788   2.85189   2.85194   2.88377
 Alpha virt. eigenvalues --    2.88378   2.90634   2.91711   2.91719   2.96980
 Alpha virt. eigenvalues --    2.96989   2.98028   2.99318   3.03574   3.03577
 Alpha virt. eigenvalues --    3.04740   3.04758   3.06596   3.08920   3.11731
 Alpha virt. eigenvalues --    3.11819   3.11837   3.15727   3.21558   3.21636
 Alpha virt. eigenvalues --    3.29245   3.31246   3.31256   3.32248   3.32291
 Alpha virt. eigenvalues --    3.33306   3.38162   3.39317   3.39326   3.41288
 Alpha virt. eigenvalues --    3.41311   3.44120   3.44133   3.46103   3.47729
 Alpha virt. eigenvalues --    3.49839   3.49851   3.61050   3.61562   3.61579
 Alpha virt. eigenvalues --    3.67693   3.69435   3.69729   3.69758   3.73693
 Alpha virt. eigenvalues --    3.73728   3.79177   3.81077   3.81110   3.83717
 Alpha virt. eigenvalues --    3.83758   3.88487   3.89867   3.89901   3.90764
 Alpha virt. eigenvalues --    3.94501   3.94534   3.98500   4.05879   4.07598
 Alpha virt. eigenvalues --    4.07635   4.08204   4.08229   4.10961   4.15786
 Alpha virt. eigenvalues --    4.15850   4.16062   4.18631   4.18637   4.20619
 Alpha virt. eigenvalues --    4.26011   4.32684   4.32740   4.33429   4.36903
 Alpha virt. eigenvalues --    4.36907   4.40031   4.40119   4.41844   4.65458
 Alpha virt. eigenvalues --    4.74631   4.74647   4.75487   4.78901   4.78945
 Alpha virt. eigenvalues --    4.92383   4.92397   4.94382   5.01861   5.01874
 Alpha virt. eigenvalues --    5.02233   5.08183   5.08613   5.08632   5.15480
 Alpha virt. eigenvalues --    5.15563   5.15617   5.18921   5.22734   5.23185
 Alpha virt. eigenvalues --    5.23203   5.25489   5.29164   5.29183   5.33160
 Alpha virt. eigenvalues --    5.33169   5.36793   5.52790   5.52836   5.76723
 Alpha virt. eigenvalues --    5.76726   5.76732   5.79054   5.79058   5.86616
 Alpha virt. eigenvalues --    9.14081  13.37318  13.81423  13.81678
  Beta  occ. eigenvalues --  -10.53061 -10.52421 -10.52419 -10.52416  -0.88393
  Beta  occ. eigenvalues --   -0.77902  -0.77899  -0.58681  -0.50010  -0.50008
  Beta  occ. eigenvalues --   -0.49521  -0.44790  -0.44783  -0.42518  -0.39390
  Beta  occ. eigenvalues --   -0.39388
  Beta virt. eigenvalues --    0.01256   0.06246   0.11319   0.11321   0.13219
  Beta virt. eigenvalues --    0.13289   0.13290   0.17362   0.17369   0.19060
  Beta virt. eigenvalues --    0.20535   0.23625   0.23640   0.28750   0.28754
  Beta virt. eigenvalues --    0.28949   0.37274   0.37281   0.40400   0.40404
  Beta virt. eigenvalues --    0.40509   0.40528   0.44625   0.48613   0.48619
  Beta virt. eigenvalues --    0.49873   0.50403   0.50415   0.51953   0.52038
  Beta virt. eigenvalues --    0.53667   0.53675   0.57261   0.59260   0.59274
  Beta virt. eigenvalues --    0.66672   0.66721   0.67609   0.78828   0.78893
  Beta virt. eigenvalues --    0.81025   0.81120   0.81425   0.87177   0.92721
  Beta virt. eigenvalues --    0.92735   0.96645   0.96654   0.99740   1.00628
  Beta virt. eigenvalues --    1.02794   1.02807   1.06705   1.06730   1.07491
  Beta virt. eigenvalues --    1.12258   1.19997   1.20010   1.20450   1.21275
  Beta virt. eigenvalues --    1.21283   1.25544   1.25569   1.26163   1.28026
  Beta virt. eigenvalues --    1.28060   1.30800   1.31121   1.36197   1.36206
  Beta virt. eigenvalues --    1.37091   1.38322   1.38327   1.41325   1.41333
  Beta virt. eigenvalues --    1.48166   1.52157   1.52475   1.54088   1.54094
  Beta virt. eigenvalues --    1.59403   1.60235   1.60242   1.71426   1.71480
  Beta virt. eigenvalues --    2.17396   2.20812   2.20829   2.26311   2.30031
  Beta virt. eigenvalues --    2.30062   2.36327   2.36367   2.38551   2.43185
  Beta virt. eigenvalues --    2.54013   2.55594   2.55607   2.63361   2.65201
  Beta virt. eigenvalues --    2.65356   2.65359   2.69004   2.69013   2.79744
  Beta virt. eigenvalues --    2.79750   2.84669   2.85625   2.85636   2.86188
  Beta virt. eigenvalues --    2.88709   2.88714   2.92302   2.92315   2.93198
  Beta virt. eigenvalues --    2.97663   2.97679   2.98956   2.99732   3.03572
  Beta virt. eigenvalues --    3.03582   3.06661   3.06688   3.07128   3.09021
  Beta virt. eigenvalues --    3.11453   3.12053   3.12072   3.15674   3.22398
  Beta virt. eigenvalues --    3.22493   3.30710   3.31169   3.31177   3.33221
  Beta virt. eigenvalues --    3.33528   3.33572   3.38350   3.40011   3.40016
  Beta virt. eigenvalues --    3.41393   3.41414   3.44187   3.44195   3.47534
  Beta virt. eigenvalues --    3.47842   3.52273   3.52286   3.61680   3.62212
  Beta virt. eigenvalues --    3.62230   3.69684   3.69709   3.69733   3.70670
  Beta virt. eigenvalues --    3.74277   3.74310   3.79635   3.81289   3.81326
  Beta virt. eigenvalues --    3.84088   3.84126   3.88606   3.89770   3.89802
  Beta virt. eigenvalues --    3.91663   3.94512   3.94548   3.98382   4.05663
  Beta virt. eigenvalues --    4.07642   4.07677   4.08277   4.08302   4.10872
  Beta virt. eigenvalues --    4.16008   4.16039   4.16079   4.19276   4.19282
  Beta virt. eigenvalues --    4.21304   4.26621   4.33256   4.33300   4.34452
  Beta virt. eigenvalues --    4.39001   4.39008   4.42307   4.42396   4.43366
  Beta virt. eigenvalues --    4.66166   4.75026   4.75042   4.76002   4.79772
  Beta virt. eigenvalues --    4.79817   4.92792   4.92807   4.95097   5.02448
  Beta virt. eigenvalues --    5.02462   5.03106   5.08293   5.09240   5.09265
  Beta virt. eigenvalues --    5.15868   5.15923   5.17195   5.19286   5.23006
  Beta virt. eigenvalues --    5.23930   5.23946   5.26321   5.29685   5.29709
  Beta virt. eigenvalues --    5.33918   5.33935   5.37050   5.55096   5.55139
  Beta virt. eigenvalues --    5.75803   5.75808   5.75861   5.78477   5.78481
  Beta virt. eigenvalues --    5.86150   9.16263  13.38130  13.81628  13.81882
          Condensed to atoms (all electrons):
               1          2          3          4          5          6
     1  C    5.518603   0.330256  -0.048410  -0.063257  -0.048439   0.330297
     2  C    0.330256   4.929285   0.407515   0.388688   0.407476  -0.064427
     3  H   -0.048410   0.407515   0.594552  -0.042143  -0.027677   0.007499
     4  H   -0.063257   0.388688  -0.042143   0.636992  -0.042148  -0.001492
     5  H   -0.048439   0.407476  -0.027677  -0.042148   0.594713  -0.007266
     6  C    0.330297  -0.064427   0.007499  -0.001492  -0.007266   4.929376
     7  H   -0.063199  -0.001472  -0.000835   0.007483  -0.001662   0.388733
     8  H   -0.048453   0.007505  -0.000269  -0.000838   0.000355   0.407432
     9  H   -0.048429  -0.007308   0.000354  -0.001648   0.004601   0.407467
    10  C    0.330299  -0.064412  -0.007350  -0.001449   0.007506  -0.064462
    11  H   -0.048361  -0.007270   0.004595  -0.001663   0.000356   0.007506
    12  H   -0.048492   0.007498   0.000357  -0.000838  -0.000268  -0.007300
    13  H   -0.063229  -0.001463  -0.001634   0.007460  -0.000837  -0.001501
               7          8          9         10         11         12
     1  C   -0.063199  -0.048453  -0.048429   0.330299  -0.048361  -0.048492
     2  C   -0.001472   0.007505  -0.007308  -0.064412  -0.007270   0.007498
     3  H   -0.000835  -0.000269   0.000354  -0.007350   0.004595   0.000357
     4  H    0.007483  -0.000838  -0.001648  -0.001449  -0.001663  -0.000838
     5  H   -0.001662   0.000355   0.004601   0.007506   0.000356  -0.000268
     6  C    0.388733   0.407432   0.407467  -0.064462   0.007506  -0.007300
     7  H    0.636844  -0.042143  -0.042132  -0.001517  -0.000834  -0.001648
     8  H   -0.042143   0.594730  -0.027664  -0.007222   0.000352   0.004604
     9  H   -0.042132  -0.027664   0.594556   0.007501  -0.000270   0.000353
    10  C   -0.001517  -0.007222   0.007501   4.929347   0.407464   0.407452
    11  H   -0.000834   0.000352  -0.000270   0.407464   0.594691  -0.027669
    12  H   -0.001648   0.004604   0.000353   0.407452  -0.027669   0.594604
    13  H    0.007506  -0.001677  -0.000835   0.388704  -0.042077  -0.042197
              13
     1  C   -0.063229
     2  C   -0.001463
     3  H   -0.001634
     4  H    0.007460
     5  H   -0.000837
     6  C   -0.001501
     7  H    0.007506
     8  H   -0.001677
     9  H   -0.000835
    10  C    0.388704
    11  H   -0.042077
    12  H   -0.042197
    13  H    0.636929
          Atomic-Atomic Spin Densities.
               1          2          3          4          5          6
     1  C    1.222903  -0.024652  -0.015306  -0.040822  -0.015215  -0.024669
     2  C   -0.024652  -0.094025   0.009533   0.002018   0.009439   0.010271
     3  H   -0.015306   0.009533   0.030414  -0.016853   0.006035  -0.000061
     4  H   -0.040822   0.002018  -0.016853   0.129322  -0.016818  -0.001867
     5  H   -0.015215   0.009439   0.006035  -0.016818   0.030267   0.002449
     6  C   -0.024669   0.010271  -0.000061  -0.001867   0.002449  -0.094044
     7  H   -0.040789  -0.001861  -0.000760   0.009031  -0.002405   0.002108
     8  H   -0.015217  -0.000061   0.000176  -0.000759   0.000446   0.009408
     9  H   -0.015299   0.002432   0.000447  -0.002395   0.002434   0.009499
    10  C   -0.024648   0.010272   0.002417  -0.001846  -0.000065   0.010276
    11  H   -0.015051   0.002448   0.002422  -0.002400   0.000443  -0.000067
    12  H   -0.015461  -0.000056   0.000451  -0.000765   0.000177   0.002433
    13  H   -0.040802  -0.001874  -0.002383   0.009007  -0.000757  -0.001855
               7          8          9         10         11         12
     1  C   -0.040789  -0.015217  -0.015299  -0.024648  -0.015051  -0.015461
     2  C   -0.001861  -0.000061   0.002432   0.010272   0.002448  -0.000056
     3  H   -0.000760   0.000176   0.000447   0.002417   0.002422   0.000451
     4  H    0.009031  -0.000759  -0.002395  -0.001846  -0.002400  -0.000765
     5  H   -0.002405   0.000446   0.002434  -0.000065   0.000443   0.000177
     6  C    0.002108   0.009408   0.009499   0.010276  -0.000067   0.002433
     7  H    0.129122  -0.016816  -0.016843  -0.001881  -0.000754  -0.002401
     8  H   -0.016816   0.030288   0.006038   0.002463   0.000442   0.002448
     9  H   -0.016843   0.006038   0.030407  -0.000058   0.000174   0.000450
    10  C   -0.001881   0.002463  -0.000058  -0.094052   0.009309   0.009626
    11  H   -0.000754   0.000442   0.000174   0.009309   0.029985   0.006035
    12  H   -0.002401   0.002448   0.000450   0.009626   0.006035   0.030697
    13  H    0.009056  -0.002418  -0.000762   0.002066  -0.016706  -0.016953
              13
     1  C   -0.040802
     2  C   -0.001874
     3  H   -0.002383
     4  H    0.009007
     5  H   -0.000757
     6  C   -0.001855
     7  H    0.009056
     8  H   -0.002418
     9  H   -0.000762
    10  C    0.002066
    11  H   -0.016706
    12  H   -0.016953
    13  H    0.129216
 Mulliken charges and spin densities:
               1          2
     1  C   -0.029186   0.934973
     2  C   -0.331871  -0.076115
     3  H    0.113446   0.016533
     4  H    0.114853   0.064852
     5  H    0.113291   0.016431
     6  C   -0.331860  -0.076120
     7  H    0.114876   0.064808
     8  H    0.113286   0.016437
     9  H    0.113454   0.016524
    10  C   -0.331860  -0.076122
    11  H    0.113177   0.016281
    12  H    0.113543   0.016681
    13  H    0.114850   0.064836
 Sum of Mulliken charges =  -0.00000   1.00000
 Mulliken charges and spin densities with hydrogens summed into heavy atoms:
               1          2
     1  C   -0.029186   0.934973
     2  C    0.009719   0.021702
     6  C    0.009756   0.021649
    10  C    0.009711   0.021675
 APT charges:
               1
     1  C    0.252563
     2  C   -1.052892
     3  H    0.340761
     4  H    0.287275
     5  H    0.340585
     6  C   -1.052730
     7  H    0.287280
     8  H    0.340600
     9  H    0.340745
    10  C   -1.052881
    11  H    0.340583
    12  H    0.340821
    13  H    0.287290
 Sum of APT charges =  -0.00000
 APT charges with hydrogens summed into heavy atoms:
               1
     1  C    0.252563
     2  C   -0.084271
     6  C   -0.084105
    10  C   -0.084187
 Electronic spatial extent (au):  <R**2>=            349.9257
 Charge=             -0.0000 electrons
 Dipole moment (field-independent basis, Debye):
    X=              0.0002    Y=              0.0000    Z=              0.2037  Tot=              0.2037
 Quadrupole moment (field-independent basis, Debye-Ang):
   XX=            -27.8148   YY=            -27.8130   ZZ=            -28.2225
   XY=             -0.0001   XZ=              0.0003   YZ=             -0.0003
 Traceless Quadrupole moment (field-independent basis, Debye-Ang):
   XX=              0.1353   YY=              0.1371   ZZ=             -0.2724
   XY=             -0.0001   XZ=              0.0003   YZ=             -0.0003
 Octapole moment (field-independent basis, Debye-Ang**2):
  XXX=             -1.3472  YYY=             -0.9362  ZZZ=              2.2692  XYY=              1.3575
  XXY=              0.9297  XXZ=             -1.5825  XZZ=             -0.0049  YZZ=              0.0048
  YYZ=             -1.5792  XYZ=             -0.0002
 Hexadecapole moment (field-independent basis, Debye-Ang**3):
 XXXX=           -223.3012 YYYY=           -223.2200 ZZZZ=            -54.2204 XXXY=              0.0021
 XXXZ=              1.3286 YYYX=             -0.0062 YYYZ=              0.9015 ZZZX=             -0.0002
 ZZZY=              0.0000 XXYY=            -74.4184 XXZZ=            -45.3723 YYZZ=            -45.3970
 XXYZ=             -0.9049 YYXZ=             -1.3241 ZZXY=              0.0012
 N-N= 1.256755608514D+02 E-N=-6.158839505700D+02  KE= 1.567365954333D+02
  Exact polarizability:   0.000   0.000   0.000   0.000   0.000   0.000
 Approx polarizability:  56.973  -0.000  56.964  -0.001   0.001  52.734
                          Isotropic Fermi Contact Couplings
        Atom                 a.u.       MegaHertz       Gauss      10(-4) cm-1
     1  C(13)              0.22158     249.09315      88.88263      83.08853
     2  C(13)             -0.02698     -30.33064     -10.82273     -10.11721
     3  H(1)               0.00567      25.34406       9.04339       8.45387
     4  H(1)               0.02494     111.47983      39.77878      37.18567
     5  H(1)               0.00561      25.06194       8.94272       8.35976
     6  C(13)             -0.02698     -30.32533     -10.82083     -10.11544
     7  H(1)               0.02491     111.35673      39.73485      37.14461
     8  H(1)               0.00561      25.05729       8.94106       8.35821
     9  H(1)               0.00566      25.30847       9.03069       8.44200
    10  C(13)             -0.02699     -30.34204     -10.82679     -10.12101
    11  H(1)               0.00552      24.66087       8.79961       8.22598
    12  H(1)               0.00576      25.72668       9.17992       8.58150
    13  H(1)               0.02493     111.41467      39.75552      37.16393
 --------------------------------------------------------
       Center         ----  Spin Dipole Couplings  ----
                      3XX-RR        3YY-RR        3ZZ-RR
 --------------------------------------------------------
     1   Atom       -0.545067     -0.545038      1.090105
     2   Atom        0.009688     -0.009855      0.000168
     3   Atom        0.009354     -0.000586     -0.008768
     4   Atom        0.008275     -0.009205      0.000930
     5   Atom        0.017478     -0.008722     -0.008756
     6   Atom       -0.008537      0.008401      0.000136
     7   Atom       -0.008055      0.007137      0.000919
     8   Atom        0.002799      0.005955     -0.008753
     9   Atom       -0.009722      0.018488     -0.008766
    10   Atom       -0.001368      0.001228      0.000140
    11   Atom       -0.007159      0.015894     -0.008735
    12   Atom        0.013512     -0.004730     -0.008782
    13   Atom       -0.001566      0.000644      0.000922
 --------------------------------------------------------
                        XY            XZ            YZ
 --------------------------------------------------------
     1   Atom        0.000003     -0.000037      0.000023
     2   Atom       -0.004146      0.007657     -0.001532
     3   Atom       -0.013419     -0.001275     -0.000110
     4   Atom       -0.003729      0.010581     -0.002176
     5   Atom        0.005744     -0.001094      0.000610
     6   Atom       -0.006389     -0.002498      0.007377
     7   Atom       -0.005704     -0.003408      0.010251
     8   Atom       -0.014213      0.000019     -0.001253
     9   Atom        0.002400      0.000734     -0.001047
    10   Atom        0.010531     -0.005123     -0.005877
    11   Atom        0.008457      0.001060      0.000593
    12   Atom        0.011027      0.000588      0.001181
    13   Atom        0.009434     -0.007215     -0.008038
 --------------------------------------------------------


 ---------------------------------------------------------------------------------
              Anisotropic Spin Dipole Couplings in Principal Axis System
 ---------------------------------------------------------------------------------

       Atom             a.u.   MegaHertz   Gauss  10(-4) cm-1        Axes

              Baa    -0.5451   -73.143   -26.099   -24.398  0.9944 -0.1056  0.0000
     1 C(13)  Bbb    -0.5450   -73.139   -26.098   -24.396  0.1056  0.9944 -0.0000
              Bcc     1.0901   146.282    52.197    48.794 -0.0000  0.0000  1.0000
 
              Baa    -0.0107    -1.436    -0.512    -0.479  0.2004  0.9797 -0.0031
     2 C(13)  Bbb    -0.0040    -0.540    -0.193    -0.180 -0.4627  0.0974  0.8812
              Bcc     0.0147     1.975     0.705     0.659  0.8636 -0.1751  0.4728
 
              Baa    -0.0104    -5.526    -1.972    -1.843  0.5184  0.7171  0.4659
     3 H(1)   Bbb    -0.0084    -4.467    -1.594    -1.490 -0.2399 -0.4009  0.8841
              Bcc     0.0187     9.993     3.566     3.333  0.8208 -0.5701 -0.0358
 
              Baa    -0.0100    -5.318    -1.898    -1.774  0.1988  0.9800  0.0027
     4 H(1)   Bbb    -0.0066    -3.497    -1.248    -1.167 -0.5586  0.1110  0.8220
              Bcc     0.0165     8.815     3.146     2.940  0.8053 -0.1649  0.5695
 
              Baa    -0.0104    -5.525    -1.972    -1.843 -0.1965  0.8640 -0.4636
     5 H(1)   Bbb    -0.0084    -4.460    -1.591    -1.488 -0.0649  0.4603  0.8854
              Bcc     0.0187     9.985     3.563     3.331  0.9784  0.2041 -0.0344
 
              Baa    -0.0107    -1.433    -0.511    -0.478  0.9486  0.3164  0.0033
     6 C(13)  Bbb    -0.0040    -0.540    -0.193    -0.180  0.1464 -0.4482  0.8819
              Bcc     0.0147     1.973     0.704     0.658 -0.2805  0.8361  0.4715
 
              Baa    -0.0100    -5.314    -1.896    -1.772  0.9481  0.3179 -0.0025
     7 H(1)   Bbb    -0.0066    -3.501    -1.249    -1.168  0.1829 -0.5391  0.8221
              Bcc     0.0165     8.814     3.145     2.940 -0.2600  0.7800  0.5693
 
              Baa    -0.0104    -5.524    -1.971    -1.843  0.6499  0.6021  0.4638
     8 H(1)   Bbb    -0.0084    -4.458    -1.591    -1.487 -0.3664 -0.2864  0.8853
              Bcc     0.0187     9.982     3.562     3.330 -0.6658  0.7453 -0.0345
 
              Baa    -0.0104    -5.526    -1.972    -1.843  0.8803 -0.0901 -0.4657
     9 H(1)   Bbb    -0.0084    -4.465    -1.593    -1.490  0.4670 -0.0073  0.8842
              Bcc     0.0187     9.991     3.565     3.333  0.0831  0.9959 -0.0357
 
              Baa    -0.0107    -1.433    -0.511    -0.478  0.7474 -0.6643 -0.0070
    10 C(13)  Bbb    -0.0040    -0.541    -0.193    -0.180  0.3180  0.3485  0.8817
              Bcc     0.0147     1.974     0.704     0.659  0.5833  0.6612 -0.4717
 
              Baa    -0.0104    -5.524    -1.971    -1.843  0.8485 -0.2630 -0.4592
    11 H(1)   Bbb    -0.0083    -4.449    -1.588    -1.484  0.4274 -0.1709  0.8878
              Bcc     0.0187     9.974     3.559     3.327  0.3120  0.9495  0.0326
 
              Baa    -0.0104    -5.525    -1.971    -1.843 -0.3606  0.8056 -0.4701
    12 H(1)   Bbb    -0.0084    -4.474    -1.596    -1.492 -0.2308  0.4113  0.8818
              Bcc     0.0187     9.999     3.568     3.335  0.9037  0.4265  0.0376
 
              Baa    -0.0100    -5.314    -1.896    -1.773  0.7509 -0.6604  0.0101
    13 H(1)   Bbb    -0.0066    -3.499    -1.248    -1.167  0.3698  0.4330  0.8220
              Bcc     0.0165     8.813     3.145     2.940  0.5472  0.6135 -0.5693
 

 ---------------------------------------------------------------------------------

 Calling FoFJK, ICntrl=    100147 FMM=F ISym2X=0 I1Cent= 0 IOpClX= 1 NMat=1 NMatS=1 NMatT=0.
 ***** Axes restored to original set *****
 -------------------------------------------------------------------
 Center     Atomic                   Forces (Hartrees/Bohr)
 Number     Number              X              Y              Z
 -------------------------------------------------------------------
      1        6          -0.002115511   -0.001578264   -0.001604475
      2        6          -0.002129725   -0.006161139   -0.005818893
      3        1           0.002332436    0.001133759    0.002331196
      4        1          -0.001577073    0.003065771    0.002746365
      5        1           0.002386911    0.002273706    0.001090388
      6        6          -0.006619624   -0.000188056   -0.005687858
      7        1           0.002565130   -0.002434608    0.002576958
      8        1           0.001751505    0.001880944    0.002369461
      9        1           0.002857338    0.001658314    0.001077549
     10        6          -0.006985912   -0.005200858   -0.000191741
     11        1           0.002864063    0.000954509    0.001771120
     12        1           0.001832059    0.002408324    0.001813749
     13        1           0.002838403    0.002187599   -0.002473819
 -------------------------------------------------------------------
 Cartesian Forces:  Max     0.006985912 RMS     0.003074869
 FormGI is forming the generalized inverse of G from B-inverse, IUseBI=4.

 GradGradGradGradGradGradGradGradGradGradGradGradGradGradGradGradGradGrad
 Berny optimization.
 Internal  Forces:  Max     0.003717472 RMS     0.001836198
 Search for a local minimum.
 Step number   1 out of a maximum of  100
 All quantities printed in internal units (Hartrees-Bohrs-Radians)
 Swapping is turned off.
 Second derivative matrix not updated -- analytic derivatives used.
 ITU=  0
     Eigenvalues ---    0.00107   0.00119   0.00124   0.00541   0.05590
     Eigenvalues ---    0.05625   0.05632   0.05692   0.05711   0.05718
     Eigenvalues ---    0.11969   0.11984   0.12577   0.12813   0.12827
     Eigenvalues ---    0.13752   0.13756   0.14061   0.14202   0.18240
     Eigenvalues ---    0.18244   0.31036   0.31049   0.31801   0.32996
     Eigenvalues ---    0.33007   0.33061   0.33287   0.33382   0.33389
     Eigenvalues ---    0.34494   0.34503   0.35421
 Angle between quadratic step and forces=  39.41 degrees.
 Linear search not attempted -- option 19 set.
 Iteration  1 RMS(Cart)=  0.01505295 RMS(Int)=  0.00033707
 Iteration  2 RMS(Cart)=  0.00037571 RMS(Int)=  0.00013012
 Iteration  3 RMS(Cart)=  0.00000011 RMS(Int)=  0.00013012
 Variable       Old X    -DE/DX   Delta X   Delta X   Delta X     New X
                                 (Linear)    (Quad)   (Total)
    R1        2.82215  -0.00028   0.00000  -0.00651  -0.00651   2.81565
    R2        2.82226  -0.00033   0.00000  -0.00667  -0.00667   2.81558
    R3        2.82226  -0.00033   0.00000  -0.00666  -0.00666   2.81560
    R4        2.06798  -0.00214   0.00000  -0.00620  -0.00620   2.06178
    R5        2.06748   0.00275   0.00000   0.01129   0.01129   2.07877
    R6        2.06792  -0.00212   0.00000  -0.00622  -0.00622   2.06169
    R7        2.06758   0.00272   0.00000   0.01119   0.01119   2.07876
    R8        2.06807  -0.00217   0.00000  -0.00636  -0.00636   2.06171
    R9        2.06796  -0.00213   0.00000  -0.00617  -0.00617   2.06179
   R10        2.06811  -0.00220   0.00000  -0.00638  -0.00638   2.06174
   R11        2.06814  -0.00218   0.00000  -0.00643  -0.00643   2.06171
   R12        2.06767   0.00269   0.00000   0.01110   0.01110   2.07877
    A1        2.06874  -0.00005   0.00000  -0.00363  -0.00376   2.06498
    A2        2.06883  -0.00002   0.00000  -0.00401  -0.00414   2.06469
    A3        2.06850  -0.00006   0.00000  -0.00302  -0.00315   2.06535
    A4        1.93425   0.00105   0.00000   0.01282   0.01262   1.94686
    A5        1.92736   0.00372   0.00000   0.01875   0.01873   1.94609
    A6        1.93429   0.00103   0.00000   0.01287   0.01267   1.94695
    A7        1.89478  -0.00324   0.00000  -0.03181  -0.03182   1.86296
    A8        1.87695   0.00041   0.00000   0.01701   0.01666   1.89361
    A9        1.89476  -0.00323   0.00000  -0.03158  -0.03159   1.86317
   A10        1.92733   0.00371   0.00000   0.01887   0.01886   1.94619
   A11        1.93436   0.00103   0.00000   0.01285   0.01265   1.94701
   A12        1.93425   0.00103   0.00000   0.01261   0.01241   1.94666
   A13        1.89469  -0.00322   0.00000  -0.03143  -0.03144   1.86324
   A14        1.89477  -0.00323   0.00000  -0.03178  -0.03179   1.86298
   A15        1.87699   0.00042   0.00000   0.01693   0.01658   1.89357
   A16        1.93451   0.00101   0.00000   0.01257   0.01237   1.94688
   A17        1.93416   0.00105   0.00000   0.01299   0.01279   1.94696
   A18        1.92738   0.00370   0.00000   0.01871   0.01869   1.94608
   A19        1.87692   0.00042   0.00000   0.01700   0.01665   1.89357
   A20        1.89463  -0.00320   0.00000  -0.03154  -0.03155   1.86307
   A21        1.89478  -0.00325   0.00000  -0.03168  -0.03169   1.86309
    D1       -2.81912  -0.00109   0.00000  -0.03050  -0.03062  -2.84974
    D2        1.36373  -0.00016   0.00000  -0.01134  -0.01133   1.35240
    D3       -0.73659   0.00077   0.00000   0.00749   0.00763  -0.72896
    D4        0.73991  -0.00077   0.00000  -0.00242  -0.00256   0.73735
    D5       -1.36042   0.00016   0.00000   0.01674   0.01673  -1.34370
    D6        2.82243   0.00110   0.00000   0.03557   0.03569   2.85812
    D7       -1.36061   0.00016   0.00000   0.01666   0.01666  -1.34394
    D8        2.82231   0.00109   0.00000   0.03523   0.03536   2.85767
    D9        0.73969  -0.00077   0.00000  -0.00251  -0.00264   0.73705
   D10        1.36363  -0.00015   0.00000  -0.01165  -0.01164   1.35199
   D11       -0.73664   0.00077   0.00000   0.00692   0.00705  -0.72958
   D12       -2.81926  -0.00109   0.00000  -0.03082  -0.03095  -2.85020
   D13       -0.73211   0.00076   0.00000  -0.00113  -0.00099  -0.73310
   D14       -2.81468  -0.00111   0.00000  -0.03903  -0.03916  -2.85384
   D15        1.36822  -0.00016   0.00000  -0.02013  -0.02013   1.34809
   D16        2.82686   0.00108   0.00000   0.02709   0.02722   2.85408
   D17        0.74429  -0.00078   0.00000  -0.01081  -0.01095   0.73334
   D18       -1.35600   0.00017   0.00000   0.00809   0.00808  -1.34792
         Item               Value     Threshold  Converged?
 Maximum Force            0.003717     0.000002     NO 
 RMS     Force            0.001836     0.000001     NO 
 Maximum Displacement     0.035863     0.000006     NO 
 RMS     Displacement     0.014984     0.000004     NO 
 Predicted change in Energy=-6.770260D-04
 GradGradGradGradGradGradGradGradGradGradGradGradGradGradGradGradGradGrad

                          Input orientation:                          
 ---------------------------------------------------------------------
 Center     Atomic      Atomic             Coordinates (Angstroms)
 Number     Number       Type             X           Y           Z
 ---------------------------------------------------------------------
      1          6           0       -1.665685    1.036025    0.173740
      2          6           0       -2.594989    1.914415    0.938498
      3          1           0       -3.199905    2.532907    0.273726
      4          1           0       -2.047324    2.601985    1.599853
      5          1           0       -3.264134    1.332773    1.574282
      6          6           0       -1.049283   -0.123472    0.877689
      7          1           0       -0.226239    0.194616    1.534570
      8          1           0       -0.629361   -0.842995    0.173237
      9          1           0       -1.773787   -0.639852    1.509230
     10          6           0       -0.948325    1.615674   -0.996455
     11          1           0       -1.605169    2.247207   -1.596500
     12          1           0       -0.535092    0.836927   -1.639180
     13          1           0       -0.104439    2.246421   -0.680070
 ---------------------------------------------------------------------
                    Distance matrix (angstroms):
                    1          2          3          4          5
     1  C    0.000000
     2  C    1.489976   0.000000
     3  H    2.145806   1.091045   0.000000
     4  H    2.152133   1.100036   1.758360   0.000000
     5  H    2.145837   1.091002   1.770846   1.758460   0.000000
     6  C    1.489943   2.558493   3.470778   2.990940   2.740704
     7  H    2.152169   2.987304   3.987483   3.019277   3.244347
     8  H    2.145853   3.471689   4.244350   3.989203   3.693091
     9  H    2.145642   2.743061   3.691433   3.254618   2.473179
    10  C    1.489952   2.558279   2.743044   2.986876   3.471556
    11  H    2.145781   2.741662   2.474379   3.246235   3.693537
    12  H    2.145824   3.471106   3.692802   3.986679   4.244982
    13  H    2.152101   2.988784   3.251725   3.016501   3.987547
                    6          7          8          9         10
     6  C    0.000000
     7  H    1.100033   0.000000
     8  H    1.091010   1.758515   0.000000
     9  H    1.091054   1.758375   1.770835   0.000000
    10  C    2.558757   2.991138   2.741345   3.470914   0.000000
    11  H    3.471418   3.989760   3.692360   4.243713   1.091024
    12  H    2.742515   3.252791   2.473030   3.691575   1.091010
    13  H    2.989270   3.021485   3.247794   3.988775   1.100038
                   11         12         13
    11  H    0.000000
    12  H    1.770813   0.000000
    13  H    1.758419   1.758416   0.000000
 Stoichiometry    C4H9(2)
 Framework group  C1[X(C4H9)]
 Deg. of freedom    33
 Full point group                 C1      NOp   1
 Largest Abelian subgroup         C1      NOp   1
 Largest concise Abelian subgroup C1      NOp   1
                         Standard orientation:                         
 ---------------------------------------------------------------------
 Center     Atomic      Atomic             Coordinates (Angstroms)
 Number     Number       Type             X           Y           Z
 ---------------------------------------------------------------------
      1          6           0       -0.000107   -0.000143   -0.176652
      2          6           0        0.325905    1.440611    0.018219
      3          1           0        1.289565    1.696841   -0.424595
      4          1           0        0.388979    1.698958    1.085627
      5          1           0       -0.437800    2.086774   -0.417109
      6          6           0       -1.410819   -0.438132    0.018249
      7          1           0       -1.666068   -0.513014    1.085636
      8          1           0       -1.588792   -1.422377   -0.417515
      9          1           0       -2.114394    0.268645   -0.424297
     10          6           0        1.084928   -1.002477    0.018232
     11          1           0        2.025193   -0.665655   -0.420844
     12          1           0        0.823646   -1.966448   -0.420851
     13          1           0        1.280228   -1.182874    1.085659
 ---------------------------------------------------------------------
 Rotational constants (GHZ):           8.0719074           8.0687638           4.3862133
 Standard basis: CC-pVTZ (5D, 7F)
 There are   275 symmetry adapted cartesian basis functions of A   symmetry.
 There are   246 symmetry adapted basis functions of A   symmetry.
   246 basis functions,   361 primitive gaussians,   275 cartesian basis functions
    17 alpha electrons       16 beta electrons
       nuclear repulsion energy       125.8049550461 Hartrees.
 NAtoms=   13 NActive=   13 NUniq=   13 SFac= 1.00D+00 NAtFMM=   60 NAOKFM=F Big=F
 Integral buffers will be    131072 words long.
 Raffenetti 2 integral format.
 Two-electron integral symmetry is turned on.
 One-electron integrals computed using PRISM.
 NBasis=   246 RedAO= T EigKep=  7.25D-04  NBF=   246
 NBsUse=   246 1.00D-06 EigRej= -1.00D+00 NBFU=   246
 Initial guess from the checkpoint file:  "/scratch/dinius.ab/QMscratch/Gau-218967.chk"
 B after Tr=     0.000000   -0.000000    0.000000
         Rot=    0.714656    0.000012   -0.000318   -0.699476 Ang=  88.77 deg.
 Initial guess <Sx>= 0.0000 <Sy>= 0.0000 <Sz>= 0.5000 <S**2>= 0.7551 S= 0.5025
 ExpMin= 1.03D-01 ExpMax= 8.24D+03 ExpMxC= 2.81D+02 IAcc=2 IRadAn=         4 AccDes= 0.00D+00
 Harris functional with IExCor= 1009 and IRadAn=       4 diagonalized for initial guess.
 HarFok:  IExCor= 1009 AccDes= 0.00D+00 IRadAn=         4 IDoV= 1 UseB2=F ITyADJ=14
 ICtDFT=  3500011 ScaDFX=  1.000000  1.000000  1.000000  1.000000
 FoFCou: FMM=F IPFlag=           0 FMFlag=      100000 FMFlg1=           0
         NFxFlg=           0 DoJE=T BraDBF=F KetDBF=T FulRan=T
         wScrn=  0.000000 ICntrl=       500 IOpCl=  0 I1Cent=   200000004 NGrid=           0
         NMat0=    1 NMatS0=      1 NMatT0=    0 NMatD0=    1 NMtDS0=    0 NMtDT0=    0
 Petite list used in FoFCou.
 Requested convergence on RMS density matrix=1.00D-08 within 900 cycles.
 Requested convergence on MAX density matrix=1.00D-06.
 Requested convergence on             energy=1.00D-06.
 No special actions if energy rises.
 Integral accuracy reduced to 1.0D-05 until final iterations.
 Initial convergence to 1.0D-05 achieved.  Increase integral accuracy.
 SCF Done:  E(UM062X) =  -157.760171363     A.U. after   10 cycles
            NFock= 10  Conv=0.59D-08     -V/T= 2.0064
 <Sx>= 0.0000 <Sy>= 0.0000 <Sz>= 0.5000 <S**2>= 0.7550 S= 0.5025
 <L.S>= 0.000000000000E+00
 Annihilation of the first spin contaminant:
 S**2 before annihilation     0.7550,   after     0.7500
 Calling FoFJK, ICntrl=      2127 FMM=F ISym2X=0 I1Cent= 0 IOpClX= 1 NMat=1 NMatS=1 NMatT=0.
 ***** Axes restored to original set *****
 -------------------------------------------------------------------
 Center     Atomic                   Forces (Hartrees/Bohr)
 Number     Number              X              Y              Z
 -------------------------------------------------------------------
      1        6           0.000103408    0.000077900    0.000080509
      2        6          -0.000061280   -0.000071196   -0.000064186
      3        1          -0.000039828    0.000021646    0.000008695
      4        1           0.000049357    0.000051905    0.000049121
      5        1          -0.000052146    0.000014904    0.000009136
      6        6          -0.000090645   -0.000029310   -0.000053131
      7        1           0.000066399    0.000032567    0.000049609
      8        1           0.000010469   -0.000044612    0.000006044
      9        1           0.000005576   -0.000048612    0.000015855
     10        6          -0.000068118   -0.000062395   -0.000037217
     11        1           0.000001882    0.000011011   -0.000048215
     12        1           0.000010048   -0.000001074   -0.000049626
     13        1           0.000064877    0.000047268    0.000033407
 -------------------------------------------------------------------
 Cartesian Forces:  Max     0.000103408 RMS     0.000049611

 GradGradGradGradGradGradGradGradGradGradGradGradGradGradGradGradGradGrad
 Berny optimization.
 Using GDIIS optimizer.
 FormGI is forming the generalized inverse of G from B-inverse, IUseBI=4.
 Internal  Forces:  Max     0.000088069 RMS     0.000036851
 Search for a local minimum.
 Step number   2 out of a maximum of  100
 All quantities printed in internal units (Hartrees-Bohrs-Radians)
 Swapping is turned off.
 Update second derivatives using D2CorX and points    1    2
 DE= -6.78D-04 DEPred=-6.77D-04 R= 1.00D+00
 TightC=F SS=  1.41D+00  RLast= 1.34D-01 DXNew= 5.0454D-01 4.0092D-01
 Trust test= 1.00D+00 RLast= 1.34D-01 DXMaxT set to 4.01D-01
 ITU=  1  0
     Eigenvalues ---    0.00107   0.00119   0.00124   0.00543   0.05589
     Eigenvalues ---    0.05623   0.05631   0.05692   0.05711   0.05717
     Eigenvalues ---    0.11967   0.11982   0.12491   0.12809   0.12823
     Eigenvalues ---    0.13748   0.13753   0.14139   0.14202   0.18237
     Eigenvalues ---    0.18241   0.31035   0.31048   0.31794   0.32996
     Eigenvalues ---    0.33007   0.33061   0.33240   0.33382   0.33389
     Eigenvalues ---    0.34494   0.34503   0.35415
 DIIS coeff's:      0.99857      0.00143
 Cosine:  1.000 >  0.970
 Length:  1.000
 GDIIS step was calculated using  2 of the last  2 vectors.
 Iteration  1 RMS(Cart)=  0.00202451 RMS(Int)=  0.00000320
 Iteration  2 RMS(Cart)=  0.00000367 RMS(Int)=  0.00000052
 Iteration  3 RMS(Cart)=  0.00000000 RMS(Int)=  0.00000052
 Variable       Old X    -DE/DX   Delta X   Delta X   Delta X     New X
                                 (Linear)    (Quad)   (Total)
    R1        2.81565   0.00008   0.00001   0.00009   0.00010   2.81575
    R2        2.81558   0.00007   0.00001   0.00010   0.00010   2.81569
    R3        2.81560   0.00008   0.00001   0.00012   0.00013   2.81573
    R4        2.06178   0.00003   0.00001   0.00003   0.00004   2.06182
    R5        2.07877   0.00009  -0.00002   0.00028   0.00027   2.07904
    R6        2.06169   0.00003   0.00001   0.00013   0.00014   2.06183
    R7        2.07876   0.00009  -0.00002   0.00028   0.00027   2.07903
    R8        2.06171   0.00003   0.00001   0.00010   0.00011   2.06182
    R9        2.06179   0.00003   0.00001   0.00008   0.00008   2.06188
   R10        2.06174   0.00003   0.00001   0.00008   0.00008   2.06182
   R11        2.06171   0.00003   0.00001   0.00011   0.00012   2.06183
   R12        2.07877   0.00009  -0.00002   0.00027   0.00026   2.07903
    A1        2.06498   0.00001   0.00001   0.00032   0.00033   2.06530
    A2        2.06469   0.00001   0.00001   0.00079   0.00080   2.06549
    A3        2.06535  -0.00001   0.00000   0.00032   0.00032   2.06567
    A4        1.94686   0.00004  -0.00002   0.00030   0.00028   1.94715
    A5        1.94609  -0.00003  -0.00003   0.00010   0.00007   1.94617
    A6        1.94695   0.00005  -0.00002   0.00022   0.00020   1.94715
    A7        1.86296  -0.00001   0.00005  -0.00006  -0.00001   1.86295
    A8        1.89361  -0.00005  -0.00002  -0.00035  -0.00037   1.89324
    A9        1.86317  -0.00001   0.00005  -0.00026  -0.00021   1.86295
   A10        1.94619  -0.00002  -0.00003   0.00004   0.00001   1.94620
   A11        1.94701   0.00003  -0.00002   0.00020   0.00018   1.94719
   A12        1.94666   0.00005  -0.00002   0.00037   0.00035   1.94702
   A13        1.86324  -0.00001   0.00004  -0.00022  -0.00017   1.86307
   A14        1.86298  -0.00001   0.00005  -0.00013  -0.00008   1.86289
   A15        1.89357  -0.00005  -0.00002  -0.00031  -0.00033   1.89324
   A16        1.94688   0.00004  -0.00002   0.00024   0.00023   1.94711
   A17        1.94696   0.00004  -0.00002   0.00019   0.00017   1.94712
   A18        1.94608  -0.00002  -0.00003   0.00014   0.00012   1.94619
   A19        1.89357  -0.00005  -0.00002  -0.00034  -0.00036   1.89321
   A20        1.86307  -0.00001   0.00005  -0.00009  -0.00005   1.86303
   A21        1.86309  -0.00001   0.00005  -0.00019  -0.00014   1.86295
    D1       -2.84974   0.00001   0.00004  -0.00206  -0.00202  -2.85176
    D2        1.35240   0.00001   0.00002  -0.00226  -0.00225   1.35016
    D3       -0.72896   0.00000  -0.00001  -0.00215  -0.00216  -0.73112
    D4        0.73735  -0.00001   0.00000  -0.00555  -0.00555   0.73180
    D5       -1.34370  -0.00001  -0.00002  -0.00575  -0.00578  -1.34947
    D6        2.85812  -0.00002  -0.00005  -0.00564  -0.00569   2.85243
    D7       -1.34394  -0.00002  -0.00002  -0.00238  -0.00241  -1.34635
    D8        2.85767  -0.00001  -0.00005  -0.00227  -0.00232   2.85535
    D9        0.73705  -0.00001   0.00000  -0.00227  -0.00227   0.73478
   D10        1.35199   0.00001   0.00002   0.00123   0.00125   1.35323
   D11       -0.72958   0.00001  -0.00001   0.00134   0.00133  -0.72825
   D12       -2.85020   0.00001   0.00004   0.00134   0.00138  -2.84882
   D13       -0.73310   0.00001   0.00000   0.00281   0.00281  -0.73029
   D14       -2.85384   0.00002   0.00006   0.00294   0.00299  -2.85085
   D15        1.34809   0.00001   0.00003   0.00295   0.00298   1.35107
   D16        2.85408  -0.00001  -0.00004  -0.00068  -0.00072   2.85336
   D17        0.73334  -0.00001   0.00002  -0.00055  -0.00054   0.73280
   D18       -1.34792  -0.00001  -0.00001  -0.00054  -0.00055  -1.34847
         Item               Value     Threshold  Converged?
 Maximum Force            0.000088     0.000002     NO 
 RMS     Force            0.000037     0.000001     NO 
 Maximum Displacement     0.006503     0.000006     NO 
 RMS     Displacement     0.002025     0.000004     NO 
 Predicted change in Energy=-3.470246D-07
 GradGradGradGradGradGradGradGradGradGradGradGradGradGradGradGradGradGrad

                          Input orientation:                          
 ---------------------------------------------------------------------
 Center     Atomic      Atomic             Coordinates (Angstroms)
 Number     Number       Type             X           Y           Z
 ---------------------------------------------------------------------
      1          6           0       -1.664513    1.036986    0.174630
      2          6           0       -2.595333    1.914471    0.938685
      3          1           0       -3.198099    2.534951    0.273775
      4          1           0       -2.049016    2.600201    1.603294
      5          1           0       -3.266899    1.332117    1.571383
      6          6           0       -1.048620   -0.123089    0.878189
      7          1           0       -0.224924    0.194346    1.534806
      8          1           0       -0.629408   -0.842959    0.173580
      9          1           0       -1.773004   -0.639352    1.510041
     10          6           0       -0.948383    1.615551   -0.996940
     11          1           0       -1.605524    2.247173   -1.596649
     12          1           0       -0.536536    0.836264   -1.640006
     13          1           0       -0.103471    2.245970   -0.682169
 ---------------------------------------------------------------------
                    Distance matrix (angstroms):
                    1          2          3          4          5
     1  C    0.000000
     2  C    1.490029   0.000000
     3  H    2.146070   1.091067   0.000000
     4  H    2.152339   1.100178   1.758486   0.000000
     5  H    2.146080   1.091074   1.770686   1.758492   0.000000
     6  C    1.489998   2.558834   3.471420   2.990464   2.742062
     7  H    2.152333   2.988818   3.988534   3.019957   3.247996
     8  H    2.146075   3.471840   4.244820   3.989325   3.693395
     9  H    2.145973   2.743116   3.692621   3.252626   2.474303
    10  C    1.490019   2.558992   2.742487   2.990341   3.471618
    11  H    2.146034   2.741958   2.473378   3.249762   3.692414
    12  H    2.146049   3.471430   3.692156   3.989745   4.244264
    13  H    2.152347   2.991059   3.251779   3.022245   3.990100
                    6          7          8          9         10
     6  C    0.000000
     7  H    1.100176   0.000000
     8  H    1.091066   1.758563   0.000000
     9  H    1.091098   1.758470   1.770705   0.000000
    10  C    2.559107   2.992149   2.741557   3.471245   0.000000
    11  H    3.471759   3.990760   3.692618   4.244007   1.091069
    12  H    2.742973   3.254012   2.473361   3.691760   1.091074
    13  H    2.990061   3.023059   3.248137   3.989762   1.100175
                   11         12         13
    11  H    0.000000
    12  H    1.770672   0.000000
    13  H    1.758533   1.758485   0.000000
 Stoichiometry    C4H9(2)
 Framework group  C1[X(C4H9)]
 Deg. of freedom    33
 Full point group                 C1      NOp   1
 Largest Abelian subgroup         C1      NOp   1
 Largest concise Abelian subgroup C1      NOp   1
                         Standard orientation:                         
 ---------------------------------------------------------------------
 Center     Atomic      Atomic             Coordinates (Angstroms)
 Number     Number       Type             X           Y           Z
 ---------------------------------------------------------------------
      1          6           0        0.000069   -0.000070   -0.175230
      2          6           0       -0.472358    1.399804    0.018039
      3          1           0        0.218638    2.120553   -0.421817
      4          1           0       -0.557480    1.653051    1.085285
      5          1           0       -1.459063    1.554299   -0.421264
      6          6           0       -0.976233   -1.108929    0.018051
      7          1           0       -1.155485   -1.307107    1.085281
      8          1           0       -0.615569   -2.041488   -0.418620
      9          1           0       -1.944949   -0.871826   -0.424518
     10          6           0        1.448597   -0.290868    0.018055
     11          1           0        2.075692    0.486860   -0.420490
     12          1           0        1.727469   -1.249232   -0.422639
     13          1           0        1.710300   -0.344733    1.085292
 ---------------------------------------------------------------------
 Rotational constants (GHZ):           8.0689503           8.0671541           4.3844871
 Standard basis: CC-pVTZ (5D, 7F)
 There are   275 symmetry adapted cartesian basis functions of A   symmetry.
 There are   246 symmetry adapted basis functions of A   symmetry.
   246 basis functions,   361 primitive gaussians,   275 cartesian basis functions
    17 alpha electrons       16 beta electrons
       nuclear repulsion energy       125.7905096472 Hartrees.
 NAtoms=   13 NActive=   13 NUniq=   13 SFac= 1.00D+00 NAtFMM=   60 NAOKFM=F Big=F
 Integral buffers will be    131072 words long.
 Raffenetti 2 integral format.
 Two-electron integral symmetry is turned on.
 One-electron integrals computed using PRISM.
 NBasis=   246 RedAO= T EigKep=  7.24D-04  NBF=   246
 NBsUse=   246 1.00D-06 EigRej= -1.00D+00 NBFU=   246
 Initial guess from the checkpoint file:  "/scratch/dinius.ab/QMscratch/Gau-218967.chk"
 B after Tr=    -0.000000   -0.000000    0.000000
         Rot=    0.962718   -0.000065    0.000153   -0.270507 Ang= -31.39 deg.
 Initial guess <Sx>= 0.0000 <Sy>= 0.0000 <Sz>= 0.5000 <S**2>= 0.7550 S= 0.5025
 Requested convergence on RMS density matrix=1.00D-08 within 900 cycles.
 Requested convergence on MAX density matrix=1.00D-06.
 Requested convergence on             energy=1.00D-06.
 No special actions if energy rises.
 SCF Done:  E(UM062X) =  -157.760169730     A.U. after    7 cycles
            NFock=  7  Conv=0.81D-08     -V/T= 2.0064
 <Sx>= 0.0000 <Sy>= 0.0000 <Sz>= 0.5000 <S**2>= 0.7550 S= 0.5025
 <L.S>= 0.000000000000E+00
 Annihilation of the first spin contaminant:
 S**2 before annihilation     0.7550,   after     0.7500
 Calling FoFJK, ICntrl=      2127 FMM=F ISym2X=0 I1Cent= 0 IOpClX= 1 NMat=1 NMatS=1 NMatT=0.
 ***** Axes restored to original set *****
 -------------------------------------------------------------------
 Center     Atomic                   Forces (Hartrees/Bohr)
 Number     Number              X              Y              Z
 -------------------------------------------------------------------
      1        6          -0.000032048    0.000013069    0.000000602
      2        6           0.000016737   -0.000007237    0.000004830
      3        1          -0.000002977   -0.000004019   -0.000013345
      4        1           0.000004769    0.000004961   -0.000003917
      5        1          -0.000002776   -0.000001049    0.000002868
      6        6          -0.000001879   -0.000009420   -0.000013004
      7        1           0.000000461    0.000004834    0.000002330
      8        1          -0.000006689    0.000002004    0.000006805
      9        1           0.000010666    0.000003156    0.000005781
     10        6           0.000006238   -0.000010111    0.000008086
     11        1           0.000002130    0.000004230    0.000004069
     12        1          -0.000000571   -0.000002143   -0.000001013
     13        1           0.000005940    0.000001723   -0.000004093
 -------------------------------------------------------------------
 Cartesian Forces:  Max     0.000032048 RMS     0.000008299

 GradGradGradGradGradGradGradGradGradGradGradGradGradGradGradGradGradGrad
 Berny optimization.
 Using GDIIS optimizer.
 FormGI is forming the generalized inverse of G from B-inverse, IUseBI=4.
 Internal  Forces:  Max     0.000019467 RMS     0.000006219
 Search for a local minimum.
 Step number   3 out of a maximum of  100
 All quantities printed in internal units (Hartrees-Bohrs-Radians)
 Swapping is turned off.
 Update second derivatives using D2CorX and points    1    2    3
 DE=  1.63D-06 DEPred=-3.47D-07 R=-4.71D+00
 Trust test=-4.71D+00 RLast= 1.27D-02 DXMaxT set to 2.00D-01
 ITU= -1  1  0
     Eigenvalues ---    0.00106   0.00120   0.00135   0.00609   0.05590
     Eigenvalues ---    0.05622   0.05633   0.05693   0.05707   0.05722
     Eigenvalues ---    0.11968   0.11980   0.12208   0.12810   0.12849
     Eigenvalues ---    0.13605   0.13752   0.14131   0.14204   0.18238
     Eigenvalues ---    0.18254   0.31028   0.31048   0.31709   0.32948
     Eigenvalues ---    0.32996   0.33061   0.33250   0.33383   0.33391
     Eigenvalues ---    0.34454   0.34502   0.34999
 DIIS coeff's:      0.86685      0.13322     -0.00007
 Cosine:  1.000 >  0.840
 Length:  1.000
 GDIIS step was calculated using  3 of the last  3 vectors.
 Iteration  1 RMS(Cart)=  0.00176775 RMS(Int)=  0.00000168
 Iteration  2 RMS(Cart)=  0.00000176 RMS(Int)=  0.00000007
 Iteration  3 RMS(Cart)=  0.00000000 RMS(Int)=  0.00000007
 Variable       Old X    -DE/DX   Delta X   Delta X   Delta X     New X
                                 (Linear)    (Quad)   (Total)
    R1        2.81575  -0.00002  -0.00001  -0.00002  -0.00004   2.81571
    R2        2.81569   0.00000  -0.00001   0.00005   0.00003   2.81572
    R3        2.81573  -0.00000  -0.00002   0.00006   0.00004   2.81577
    R4        2.06182   0.00001  -0.00001   0.00006   0.00006   2.06188
    R5        2.07904   0.00000  -0.00003   0.00009   0.00006   2.07909
    R6        2.06183   0.00001  -0.00002   0.00002   0.00000   2.06183
    R7        2.07903   0.00000  -0.00003   0.00010   0.00006   2.07909
    R8        2.06182  -0.00001  -0.00001   0.00004   0.00003   2.06184
    R9        2.06188  -0.00001  -0.00001  -0.00002  -0.00003   2.06184
   R10        2.06182  -0.00000  -0.00001   0.00000  -0.00001   2.06181
   R11        2.06183   0.00000  -0.00002   0.00006   0.00005   2.06188
   R12        2.07903   0.00001  -0.00003   0.00010   0.00007   2.07909
    A1        2.06530   0.00001  -0.00004   0.00040   0.00036   2.06566
    A2        2.06549   0.00000  -0.00011   0.00016   0.00006   2.06554
    A3        2.06567  -0.00002  -0.00004  -0.00034  -0.00038   2.06529
    A4        1.94715  -0.00002  -0.00004  -0.00006  -0.00010   1.94705
    A5        1.94617  -0.00000  -0.00001   0.00005   0.00004   1.94621
    A6        1.94715   0.00000  -0.00003   0.00013   0.00010   1.94726
    A7        1.86295   0.00001  -0.00000  -0.00007  -0.00007   1.86288
    A8        1.89324   0.00000   0.00005  -0.00013  -0.00008   1.89316
    A9        1.86295   0.00000   0.00003   0.00008   0.00010   1.86305
   A10        1.94620  -0.00001   0.00000  -0.00009  -0.00009   1.94610
   A11        1.94719   0.00000  -0.00002   0.00001  -0.00002   1.94718
   A12        1.94702   0.00001  -0.00005   0.00027   0.00022   1.94723
   A13        1.86307   0.00000   0.00002  -0.00012  -0.00010   1.86297
   A14        1.86289  -0.00000   0.00001   0.00003   0.00004   1.86293
   A15        1.89324  -0.00000   0.00005  -0.00010  -0.00006   1.89318
   A16        1.94711  -0.00000  -0.00003   0.00013   0.00010   1.94721
   A17        1.94712   0.00000  -0.00002   0.00006   0.00004   1.94716
   A18        1.94619   0.00001  -0.00001  -0.00003  -0.00004   1.94615
   A19        1.89321   0.00000   0.00005  -0.00008  -0.00003   1.89318
   A20        1.86303  -0.00000   0.00000   0.00002   0.00003   1.86305
   A21        1.86295  -0.00000   0.00002  -0.00012  -0.00010   1.86284
    D1       -2.85176   0.00000   0.00027   0.00178   0.00205  -2.84971
    D2        1.35016   0.00000   0.00030   0.00187   0.00217   1.35233
    D3       -0.73112  -0.00000   0.00029   0.00166   0.00195  -0.72917
    D4        0.73180   0.00001   0.00074   0.00132   0.00206   0.73386
    D5       -1.34947   0.00001   0.00077   0.00141   0.00218  -1.34729
    D6        2.85243   0.00000   0.00076   0.00120   0.00196   2.85439
    D7       -1.34635  -0.00000   0.00032  -0.00272  -0.00240  -1.34875
    D8        2.85535   0.00000   0.00031  -0.00251  -0.00220   2.85315
    D9        0.73478  -0.00000   0.00030  -0.00257  -0.00227   0.73251
   D10        1.35323  -0.00000  -0.00017  -0.00214  -0.00230   1.35093
   D11       -0.72825  -0.00000  -0.00018  -0.00192  -0.00210  -0.73035
   D12       -2.84882  -0.00001  -0.00019  -0.00199  -0.00217  -2.85099
   D13       -0.73029   0.00001  -0.00037   0.00301   0.00263  -0.72766
   D14       -2.85085   0.00000  -0.00040   0.00298   0.00257  -2.84827
   D15        1.35107   0.00000  -0.00040   0.00311   0.00271   1.35378
   D16        2.85336   0.00001   0.00010   0.00236   0.00245   2.85581
   D17        0.73280   0.00000   0.00007   0.00232   0.00240   0.73520
   D18       -1.34847   0.00000   0.00007   0.00245   0.00253  -1.34594
         Item               Value     Threshold  Converged?
 Maximum Force            0.000019     0.000002     NO 
 RMS     Force            0.000006     0.000001     NO 
 Maximum Displacement     0.004182     0.000006     NO 
 RMS     Displacement     0.001768     0.000004     NO 
 Predicted change in Energy=-7.171722D-08
 GradGradGradGradGradGradGradGradGradGradGradGradGradGradGradGradGradGrad

                          Input orientation:                          
 ---------------------------------------------------------------------
 Center     Atomic      Atomic             Coordinates (Angstroms)
 Number     Number       Type             X           Y           Z
 ---------------------------------------------------------------------
      1          6           0       -1.664597    1.037027    0.174752
      2          6           0       -2.595990    1.914256    0.938366
      3          1           0       -3.199980    2.533117    0.273008
      4          1           0       -2.050102    2.601626    1.601683
      5          1           0       -3.266482    1.331915    1.572214
      6          6           0       -1.048528   -0.123086    0.878130
      7          1           0       -0.223534    0.194232    1.533229
      8          1           0       -0.630825   -0.843668    0.173330
      9          1           0       -1.772186   -0.638564    1.511422
     10          6           0       -0.947949    1.615748   -0.996451
     11          1           0       -1.604111    2.249386   -1.595096
[...]
 Alpha virt. eigenvalues --    3.42103   3.45498   3.45499   3.46997   3.47491
 Alpha virt. eigenvalues --    3.49639   3.49640   3.59453   3.60495   3.60501
 Alpha virt. eigenvalues --    3.65534   3.70748   3.70752   3.71065   3.73818
 Alpha virt. eigenvalues --    3.73825   3.78925   3.79817   3.79822   3.83080
 Alpha virt. eigenvalues --    3.83085   3.89934   3.91050   3.91058   3.91257
 Alpha virt. eigenvalues --    3.94260   3.94270   3.98413   4.06080   4.08439
 Alpha virt. eigenvalues --    4.08445   4.09103   4.09109   4.12173   4.16078
 Alpha virt. eigenvalues --    4.16088   4.16448   4.19398   4.19404   4.21014
 Alpha virt. eigenvalues --    4.26996   4.32917   4.32920   4.33249   4.37612
 Alpha virt. eigenvalues --    4.37615   4.40385   4.40951   4.40972   4.66077
 Alpha virt. eigenvalues --    4.74552   4.75318   4.75325   4.77442   4.77448
 Alpha virt. eigenvalues --    4.92683   4.92686   4.94336   4.99044   4.99048
 Alpha virt. eigenvalues --    5.01742   5.08316   5.08325   5.09036   5.13413
 Alpha virt. eigenvalues --    5.13426   5.16341   5.18841   5.21706   5.24085
 Alpha virt. eigenvalues --    5.24087   5.26606   5.31471   5.31476   5.35959
 Alpha virt. eigenvalues --    5.35963   5.39820   5.52717   5.52732   5.78074
 Alpha virt. eigenvalues --    5.78078   5.79453   5.79623   5.79627   5.87219
 Alpha virt. eigenvalues --    9.16577  13.37867  13.80219  13.80242
  Beta  occ. eigenvalues --  -10.53206 -10.52405 -10.52404 -10.52401  -0.88519
  Beta  occ. eigenvalues --   -0.77963  -0.77962  -0.59068  -0.50305  -0.50304
  Beta  occ. eigenvalues --   -0.49083  -0.44245  -0.44244  -0.42796  -0.39698
  Beta  occ. eigenvalues --   -0.39697
  Beta virt. eigenvalues --    0.00975   0.06314   0.11246   0.11247   0.13325
  Beta virt. eigenvalues --    0.13326   0.13425   0.17343   0.17344   0.19037
  Beta virt. eigenvalues --    0.20431   0.23662   0.23664   0.29021   0.29023
  Beta virt. eigenvalues --    0.29180   0.37045   0.37046   0.40333   0.40338
  Beta virt. eigenvalues --    0.40391   0.41289   0.44683   0.48426   0.48428
  Beta virt. eigenvalues --    0.49929   0.50135   0.50138   0.51923   0.51975
  Beta virt. eigenvalues --    0.53700   0.53701   0.56868   0.59425   0.59428
  Beta virt. eigenvalues --    0.67029   0.67039   0.67625   0.78860   0.78873
  Beta virt. eigenvalues --    0.81067   0.81086   0.82033   0.86643   0.92633
  Beta virt. eigenvalues --    0.92636   0.96565   0.96567   0.99736   1.01079
  Beta virt. eigenvalues --    1.02617   1.02619   1.07187   1.07193   1.08065
  Beta virt. eigenvalues --    1.12525   1.20042   1.20046   1.20610   1.21235
  Beta virt. eigenvalues --    1.21239   1.25398   1.25401   1.26336   1.28312
  Beta virt. eigenvalues --    1.28318   1.30571   1.30596   1.35732   1.35733
  Beta virt. eigenvalues --    1.37143   1.37819   1.37820   1.41663   1.41666
  Beta virt. eigenvalues --    1.48786   1.52183   1.53396   1.54355   1.54356
  Beta virt. eigenvalues --    1.59659   1.61057   1.61060   1.72992   1.72995
  Beta virt. eigenvalues --    2.17679   2.20954   2.20956   2.26462   2.29234
  Beta virt. eigenvalues --    2.29244   2.36087   2.36096   2.38373   2.42794
  Beta virt. eigenvalues --    2.54024   2.55448   2.55449   2.64055   2.65321
  Beta virt. eigenvalues --    2.65323   2.65664   2.68649   2.68650   2.80006
  Beta virt. eigenvalues --    2.80010   2.84469   2.85743   2.85750   2.86867
  Beta virt. eigenvalues --    2.88770   2.88772   2.92013   2.92016   2.92115
  Beta virt. eigenvalues --    2.97091   2.97093   2.98566   3.00853   3.03293
  Beta virt. eigenvalues --    3.03298   3.06138   3.06147   3.07424   3.08892
  Beta virt. eigenvalues --    3.11748   3.11977   3.11980   3.15253   3.22078
  Beta virt. eigenvalues --    3.22101   3.30788   3.32317   3.32318   3.33616
  Beta virt. eigenvalues --    3.33628   3.33688   3.39376   3.40450   3.40456
  Beta virt. eigenvalues --    3.42243   3.42248   3.45579   3.45580   3.47290
  Beta virt. eigenvalues --    3.48633   3.51952   3.51953   3.60054   3.61134
  Beta virt. eigenvalues --    3.61140   3.67191   3.70660   3.70665   3.72436
  Beta virt. eigenvalues --    3.74375   3.74382   3.79629   3.79811   3.79816
  Beta virt. eigenvalues --    3.83683   3.83687   3.90020   3.90927   3.90934
  Beta virt. eigenvalues --    3.92010   3.94359   3.94369   3.98366   4.05905
  Beta virt. eigenvalues --    4.08486   4.08491   4.09264   4.09271   4.12101
  Beta virt. eigenvalues --    4.16327   4.16337   4.16361   4.19902   4.19908
  Beta virt. eigenvalues --    4.21879   4.27485   4.33539   4.33541   4.34356
  Beta virt. eigenvalues --    4.39572   4.39577   4.41733   4.43207   4.43227
  Beta virt. eigenvalues --    4.66783   4.75053   4.75756   4.75763   4.78292
  Beta virt. eigenvalues --    4.78297   4.93087   4.93091   4.94795   4.99433
  Beta virt. eigenvalues --    4.99436   5.02636   5.09158   5.09167   5.09476
  Beta virt. eigenvalues --    5.13748   5.13761   5.18018   5.19188   5.21914
  Beta virt. eigenvalues --    5.24858   5.24860   5.27497   5.31784   5.31788
  Beta virt. eigenvalues --    5.37043   5.37050   5.40009   5.54865   5.54879
  Beta virt. eigenvalues --    5.77218   5.77223   5.78580   5.79005   5.79009
  Beta virt. eigenvalues --    5.86778   9.18689  13.38729  13.80452  13.80475
          Condensed to atoms (all electrons):
               1          2          3          4          5          6
     1  C    5.491209   0.333015  -0.047792  -0.060987  -0.047804   0.333000
     2  C    0.333015   4.932669   0.407712   0.386460   0.407709  -0.064546
     3  H   -0.047792   0.407712   0.592432  -0.044245  -0.026076   0.007431
     4  H   -0.060987   0.386460  -0.044245   0.644189  -0.044231  -0.001911
     5  H   -0.047804   0.407709  -0.026076  -0.044231   0.592428  -0.006909
     6  C    0.333000  -0.064546   0.007431  -0.001911  -0.006909   4.932671
     7  H   -0.060990  -0.001907  -0.000805   0.007546  -0.001688   0.386447
     8  H   -0.047769   0.007429  -0.000255  -0.000805   0.000318   0.407714
     9  H   -0.047798  -0.006917   0.000318  -0.001684   0.004561   0.407720
    10  C    0.332993  -0.064543  -0.006919  -0.001904   0.007432  -0.064533
    11  H   -0.047798  -0.006915   0.004561  -0.001685   0.000318   0.007430
    12  H   -0.047778   0.007428   0.000318  -0.000805  -0.000255  -0.006922
    13  H   -0.060995  -0.001905  -0.001685   0.007543  -0.000806  -0.001899
               7          8          9         10         11         12
     1  C   -0.060990  -0.047769  -0.047798   0.332993  -0.047798  -0.047778
     2  C   -0.001907   0.007429  -0.006917  -0.064543  -0.006915   0.007428
     3  H   -0.000805  -0.000255   0.000318  -0.006919   0.004561   0.000318
     4  H    0.007546  -0.000805  -0.001684  -0.001904  -0.001685  -0.000805
     5  H   -0.001688   0.000318   0.004561   0.007432   0.000318  -0.000255
     6  C    0.386447   0.407714   0.407720  -0.064533   0.007430  -0.006922
     7  H    0.644230  -0.044227  -0.044264  -0.001900  -0.000806  -0.001682
     8  H   -0.044227   0.592413  -0.026078  -0.006915   0.000318   0.004558
     9  H   -0.044264  -0.026078   0.592419   0.007429  -0.000255   0.000318
    10  C   -0.001900  -0.006915   0.007429   4.932658   0.407721   0.407722
    11  H   -0.000806   0.000318  -0.000255   0.407721   0.592422  -0.026067
    12  H   -0.001682   0.004558   0.000318   0.407722  -0.026067   0.592415
    13  H    0.007538  -0.001685  -0.000806   0.386433  -0.044244  -0.044263
              13
     1  C   -0.060995
     2  C   -0.001905
     3  H   -0.001685
     4  H    0.007543
     5  H   -0.000806
     6  C   -0.001899
     7  H    0.007538
     8  H   -0.001685
     9  H   -0.000806
    10  C    0.386433
    11  H   -0.044244
    12  H   -0.044263
    13  H    0.644280
          Atomic-Atomic Spin Densities.
               1          2          3          4          5          6
     1  C    1.206922  -0.024424  -0.014942  -0.039293  -0.014946  -0.024416
     2  C   -0.024424  -0.094378   0.009781   0.000766   0.009776   0.010464
     3  H   -0.014942   0.009781   0.030569  -0.017317   0.005858  -0.000038
     4  H   -0.039293   0.000766  -0.017317   0.133330  -0.017317  -0.002010
     5  H   -0.014946   0.009776   0.005858  -0.017317   0.030579   0.002472
     6  C   -0.024416   0.010464  -0.000038  -0.002010   0.002472  -0.094363
     7  H   -0.039297  -0.002004  -0.000764   0.009170  -0.002426   0.000751
     8  H   -0.014911  -0.000039   0.000170  -0.000763   0.000433   0.009756
     9  H   -0.014968   0.002467   0.000434  -0.002424   0.002383   0.009802
    10  C   -0.024438   0.010464   0.002470  -0.002009  -0.000038   0.010463
    11  H   -0.014945   0.002468   0.002381  -0.002424   0.000434  -0.000038
    12  H   -0.014937  -0.000039   0.000433  -0.000764   0.000170   0.002465
    13  H   -0.039302  -0.002005  -0.002424   0.009166  -0.000764  -0.002005
               7          8          9         10         11         12
     1  C   -0.039297  -0.014911  -0.014968  -0.024438  -0.014945  -0.014937
     2  C   -0.002004  -0.000039   0.002467   0.010464   0.002468  -0.000039
     3  H   -0.000764   0.000170   0.000434   0.002470   0.002381   0.000433
     4  H    0.009170  -0.000763  -0.002424  -0.002009  -0.002424  -0.000764
     5  H   -0.002426   0.000433   0.002383  -0.000038   0.000434   0.000170
     6  C    0.000751   0.009756   0.009802   0.010463  -0.000038   0.002465
     7  H    0.133341  -0.017295  -0.017337  -0.002008  -0.000764  -0.002421
     8  H   -0.017295   0.030512   0.005858   0.002469   0.000433   0.002377
     9  H   -0.017337   0.005858   0.030623  -0.000037   0.000170   0.000434
    10  C   -0.002008   0.002469  -0.000037  -0.094353   0.009787   0.009787
    11  H   -0.000764   0.000433   0.000170   0.009787   0.030577   0.005857
    12  H   -0.002421   0.002377   0.000434   0.009787   0.005857   0.030568
    13  H    0.009161  -0.002422  -0.000765   0.000741  -0.017322  -0.017321
              13
     1  C   -0.039302
     2  C   -0.002005
     3  H   -0.002424
     4  H    0.009166
     5  H   -0.000764
     6  C   -0.002005
     7  H    0.009161
     8  H   -0.002422
     9  H   -0.000765
    10  C    0.000741
    11  H   -0.017322
    12  H   -0.017321
    13  H    0.133386
 Mulliken charges and spin densities:
               1          2
     1  C   -0.020506   0.926103
     2  C   -0.335688  -0.076703
     3  H    0.115007   0.016611
     4  H    0.112519   0.068111
     5  H    0.115002   0.016613
     6  C   -0.335693  -0.076698
     7  H    0.112508   0.068106
     8  H    0.114984   0.016575
     9  H    0.115036   0.016639
    10  C   -0.335674  -0.076704
    11  H    0.114999   0.016613
    12  H    0.115012   0.016610
    13  H    0.112494   0.068123
 Sum of Mulliken charges =   0.00000   1.00000
 Mulliken charges and spin densities with hydrogens summed into heavy atoms:
               1          2
     1  C   -0.020506   0.926103
     2  C    0.006840   0.024632
     6  C    0.006835   0.024622
    10  C    0.006831   0.024642
 Electronic spatial extent (au):  <R**2>=            349.6201
 Charge=              0.0000 electrons
 Dipole moment (field-independent basis, Debye):
    X=             -0.0000    Y=             -0.0000    Z=              0.2380  Tot=              0.2380
 Quadrupole moment (field-independent basis, Debye-Ang):
   XX=            -27.6247   YY=            -27.6245   ZZ=            -28.4565
   XY=              0.0003   XZ=              0.0002   YZ=             -0.0004
 Traceless Quadrupole moment (field-independent basis, Debye-Ang):
   XX=              0.2772   YY=              0.2774   ZZ=             -0.5546
   XY=              0.0003   XZ=              0.0002   YZ=             -0.0004
 Octapole moment (field-independent basis, Debye-Ang**2):
  XXX=              0.4176  YYY=             -1.5041  ZZZ=              2.1875  XYY=             -0.4171
  XXY=              1.4999  XXZ=             -1.3596  XZZ=             -0.0008  YZZ=              0.0020
  YYZ=             -1.3584  XYZ=              0.0002
 Hexadecapole moment (field-independent basis, Debye-Ang**3):
 XXXX=           -221.5793 YYYY=           -221.5574 ZZZZ=            -54.5094 XXXY=              0.0028
 XXXZ=             -0.4600 YYYX=              0.0012 YYYZ=              1.6522 ZZZX=              0.0000
 ZZZY=             -0.0001 XXYY=            -73.8570 XXZZ=            -45.6623 YYZZ=            -45.6633
 XXYZ=             -1.6546 YYXZ=              0.4618 ZZXY=             -0.0013
 N-N= 1.257914336312D+02 E-N=-6.161133944608D+02  KE= 1.567499081567D+02
                          Isotropic Fermi Contact Couplings
        Atom                 a.u.       MegaHertz       Gauss      10(-4) cm-1
     1  C(13)              0.22503     252.98034      90.26968      84.38516
     2  C(13)             -0.02652     -29.81080     -10.63723      -9.94381
     3  H(1)               0.00567      25.33773       9.04113       8.45176
     4  H(1)               0.02583     115.45219      41.19621      38.51070
     5  H(1)               0.00567      25.33530       9.04026       8.45095
     6  C(13)             -0.02652     -29.81262     -10.63788      -9.94442
     7  H(1)               0.02583     115.45591      41.19754      38.51195
     8  H(1)               0.00565      25.25123       9.01027       8.42290
     9  H(1)               0.00568      25.40914       9.06661       8.47558
    10  C(13)             -0.02652     -29.81608     -10.63912      -9.94557
    11  H(1)               0.00567      25.34354       9.04320       8.45369
    12  H(1)               0.00567      25.33318       9.03951       8.45024
    13  H(1)               0.02584     115.49430      41.21124      38.52475
 --------------------------------------------------------
       Center         ----  Spin Dipole Couplings  ----
                      3XX-RR        3YY-RR        3ZZ-RR
 --------------------------------------------------------
     1   Atom       -0.539706     -0.539709      1.079415
     2   Atom       -0.010028      0.012077     -0.002049
     3   Atom       -0.003422      0.012014     -0.008592
     4   Atom       -0.009342      0.008270      0.001072
     5   Atom       -0.007114      0.015707     -0.008593
     6   Atom        0.008297     -0.006252     -0.002045
     7   Atom        0.005269     -0.006342      0.001073
     8   Atom        0.002784      0.005803     -0.008587
     9   Atom        0.018403     -0.009808     -0.008595
    10   Atom        0.004795     -0.002747     -0.002048
    11   Atom        0.017214     -0.008622     -0.008592
    12   Atom       -0.002092      0.010682     -0.008590
    13   Atom        0.002470     -0.003544      0.001074
 --------------------------------------------------------
                        XY            XZ            YZ
 --------------------------------------------------------
     1   Atom        0.000001     -0.000007     -0.000058
     2   Atom        0.002024      0.000745      0.008186
     3   Atom        0.011831      0.000424     -0.000832
     4   Atom        0.001613      0.000952      0.010480
     5   Atom       -0.008329     -0.000566     -0.000743
     6   Atom        0.008560     -0.007459     -0.003459
     7   Atom        0.006817     -0.009556     -0.004406
     8   Atom        0.014043      0.000920     -0.000127
     9   Atom        0.000772      0.000518      0.000783
    10   Atom       -0.010584      0.006720     -0.004741
    11   Atom       -0.005716     -0.000361      0.000861
    12   Atom       -0.012598     -0.000932      0.000048
    13   Atom       -0.008433      0.008600     -0.006064
 --------------------------------------------------------


 ---------------------------------------------------------------------------------
              Anisotropic Spin Dipole Couplings in Principal Axis System
 ---------------------------------------------------------------------------------

       Atom             a.u.   MegaHertz   Gauss  10(-4) cm-1        Axes

              Baa    -0.5397   -72.424   -25.843   -24.158 -0.2181  0.9759  0.0000
     1 C(13)  Bbb    -0.5397   -72.423   -25.842   -24.158  0.9759  0.2181  0.0000
              Bcc     1.0794   144.847    51.685    48.316 -0.0000 -0.0000  1.0000
 
              Baa    -0.0102    -1.370    -0.489    -0.457  0.9959 -0.0903 -0.0004
     2 C(13)  Bbb    -0.0058    -0.777    -0.277    -0.259 -0.0371 -0.4127  0.9101
              Bcc     0.0160     2.147     0.766     0.716  0.0823  0.9064  0.4144
 
              Baa    -0.0102    -5.442    -1.942    -1.815  0.7886 -0.4362 -0.4335
     3 H(1)   Bbb    -0.0082    -4.393    -1.567    -1.465  0.3897 -0.1907  0.9010
              Bcc     0.0184     9.835     3.509     3.281  0.4757  0.8794 -0.0196
 
              Baa    -0.0095    -5.063    -1.806    -1.689  0.9959 -0.0904 -0.0001
     4 H(1)   Bbb    -0.0064    -3.416    -1.219    -1.139 -0.0522 -0.5767  0.8153
              Bcc     0.0159     8.478     3.025     2.828  0.0738  0.8120  0.5790
 
              Baa    -0.0102    -5.442    -1.942    -1.815  0.8542  0.2871  0.4336
     5 H(1)   Bbb    -0.0082    -4.393    -1.568    -1.465 -0.4179 -0.1174  0.9009
              Bcc     0.0184     9.835     3.510     3.281 -0.3095  0.9507 -0.0197
 
              Baa    -0.0102    -1.370    -0.489    -0.457 -0.4193  0.9079  0.0016
     6 C(13)  Bbb    -0.0058    -0.777    -0.277    -0.259  0.3770  0.1725  0.9100
              Bcc     0.0160     2.147     0.766     0.716  0.8259  0.3821 -0.4146
 
              Baa    -0.0095    -5.063    -1.807    -1.689 -0.4201  0.9075 -0.0016
     7 H(1)   Bbb    -0.0064    -3.415    -1.219    -1.139  0.5249  0.2445  0.8153
              Bcc     0.0159     8.479     3.025     2.828  0.7403  0.3417 -0.5790
 
              Baa    -0.0102    -5.442    -1.942    -1.815  0.6760 -0.5966 -0.4325
     8 H(1)   Bbb    -0.0082    -4.390    -1.567    -1.464  0.3101 -0.3022  0.9014
              Bcc     0.0184     9.832     3.508     3.280  0.6685  0.7434  0.0193
 
              Baa    -0.0102    -5.442    -1.942    -1.815 -0.0164  0.9007 -0.4341
     9 H(1)   Bbb    -0.0082    -4.394    -1.568    -1.466 -0.0301  0.4335  0.9006
              Bcc     0.0184     9.836     3.510     3.281  0.9994  0.0279  0.0200
 
              Baa    -0.0102    -1.370    -0.489    -0.457  0.5763  0.8172  0.0001
    10 C(13)  Bbb    -0.0058    -0.778    -0.277    -0.259 -0.3388  0.2388  0.9100
              Bcc     0.0160     2.148     0.766     0.716  0.7437 -0.5245  0.4145
 
              Baa    -0.0102    -5.442    -1.942    -1.815  0.1785  0.8834 -0.4333
    11 H(1)   Bbb    -0.0082    -4.393    -1.567    -1.465  0.1072  0.4203  0.9010
              Bcc     0.0184     9.835     3.509     3.281  0.9781 -0.2073 -0.0197
 
              Baa    -0.0102    -5.442    -1.942    -1.815  0.7722  0.4649  0.4330
    12 H(1)   Bbb    -0.0082    -4.392    -1.567    -1.465 -0.3597 -0.2419  0.9012
              Bcc     0.0184     9.833     3.509     3.280 -0.5237  0.8517  0.0196
 
              Baa    -0.0095    -5.064    -1.807    -1.689  0.5762  0.8173  0.0000
    13 H(1)   Bbb    -0.0064    -3.415    -1.218    -1.139 -0.4733  0.3336  0.8153
              Bcc     0.0159     8.478     3.025     2.828  0.6663 -0.4698  0.5791
 

 ---------------------------------------------------------------------------------



 WE LEARN WISDOM FROM FAILURE MUCH MORE THAN FROM SUCCESS.
 WE DISCOVER WHAT WILL DO BY FINDING OUT WHAT WILL NOT DO...
 AND HE WHO NEVER MADE A MISTAKE NEVER MADE A DISCOVERY
 Error termination request processed by link 9999.
 Error termination via Lnk1e in /shared/centos7/gaussian/g16/l9999.exe at Fri Apr  5 11:27:13 2019.
 Job cpu time:       0 days 16 hours 21 minutes 12.5 seconds.
 Elapsed time:       0 days  0 hours 51 minutes 31.7 seconds.
 File lengths (MBytes):  RWF=   1360 Int=      0 D2E=      0 Chk=     32 Scr=     32
