 Entering Gaussian System, Link 0=g16
 Input=nateC#C[C]=C.com
 Output=nateC#C[C]=C.log
 Initial command:
 /shared/centos7/gaussian/g16/l1.exe "/scratch/dinius.ab/QMscratch/Gau-2555.inp" -scrdir="/scratch/dinius.ab/QMscratch/"
 Default is to use a total of  20 processors:
                               20 via shared-memory
                                1 via Linda
 Entering Link 1 = /shared/centos7/gaussian/g16/l1.exe PID=      2556.
  
 Copyright (c) 1988,1990,1992,1993,1995,1998,2003,2009,2016,
            Gaussian, Inc.  All Rights Reserved.
  
 This is part of the Gaussian(R) 16 program.  It is based on
 the Gaussian(R) 09 system (copyright 2009, Gaussian, Inc.),
 the Gaussian(R) 03 system (copyright 2003, Gaussian, Inc.),
 the Gaussian(R) 98 system (copyright 1998, Gaussian, Inc.),
 the Gaussian(R) 94 system (copyright 1995, Gaussian, Inc.),
 the Gaussian 92(TM) system (copyright 1992, Gaussian, Inc.),
 the Gaussian 90(TM) system (copyright 1990, Gaussian, Inc.),
 the Gaussian 88(TM) system (copyright 1988, Gaussian, Inc.),
 the Gaussian 86(TM) system (copyright 1986, Carnegie Mellon
 University), and the Gaussian 82(TM) system (copyright 1983,
 Carnegie Mellon University). Gaussian is a federally registered
 trademark of Gaussian, Inc.
  
 This software contains proprietary and confidential information,
 including trade secrets, belonging to Gaussian, Inc.
  
 This software is provided under written license and may be
 used, copied, transmitted, or stored only in accord with that
 written license.
  
 The following legend is applicable only to US Government
 contracts under FAR:
  
                    RESTRICTED RIGHTS LEGEND
  
 Use, reproduction and disclosure by the US Government is
 subject to restrictions as set forth in subparagraphs (a)
 and (c) of the Commercial Computer Software - Restricted
 Rights clause in FAR 52.227-19.
  
 Gaussian, Inc.
 340 Quinnipiac St., Bldg. 40, Wallingford CT 06492
  
  
 ---------------------------------------------------------------
 Warning -- This program may not be used in any manner that
 competes with the business of Gaussian, Inc. or will provide
 assistance to any competitor of Gaussian, Inc.  The licensee
 of this program is prohibited from giving any competitor of
 Gaussian, Inc. access to this program.  By using this program,
 the user acknowledges that Gaussian, Inc. is engaged in the
 business of creating and licensing software in the field of
 computational chemistry and represents and warrants to the
 licensee that it is not a competitor of Gaussian, Inc. and that
 it will not use this program in any manner prohibited above.
 ---------------------------------------------------------------
  

 Cite this work as:
 Gaussian 16, Revision A.03,
 M. J. Frisch, G. W. Trucks, H. B. Schlegel, G. E. Scuseria, 
 M. A. Robb, J. R. Cheeseman, G. Scalmani, V. Barone, 
 G. A. Petersson, H. Nakatsuji, X. Li, M. Caricato, A. V. Marenich, 
 J. Bloino, B. G. Janesko, R. Gomperts, B. Mennucci, H. P. Hratchian, 
 J. V. Ortiz, A. F. Izmaylov, J. L. Sonnenberg, D. Williams-Young, 
 F. Ding, F. Lipparini, F. Egidi, J. Goings, B. Peng, A. Petrone, 
 T. Henderson, D. Ranasinghe, V. G. Zakrzewski, J. Gao, N. Rega, 
 G. Zheng, W. Liang, M. Hada, M. Ehara, K. Toyota, R. Fukuda, 
 J. Hasegawa, M. Ishida, T. Nakajima, Y. Honda, O. Kitao, H. Nakai, 
 T. Vreven, K. Throssell, J. A. Montgomery, Jr., J. E. Peralta, 
 F. Ogliaro, M. J. Bearpark, J. J. Heyd, E. N. Brothers, K. N. Kudin, 
 V. N. Staroverov, T. A. Keith, R. Kobayashi, J. Normand, 
 K. Raghavachari, A. P. Rendell, J. C. Burant, S. S. Iyengar, 
 J. Tomasi, M. Cossi, J. M. Millam, M. Klene, C. Adamo, R. Cammi, 
 J. W. Ochterski, R. L. Martin, K. Morokuma, O. Farkas, 
 J. B. Foresman, and D. J. Fox, Gaussian, Inc., Wallingford CT, 2016.
 
 ******************************************
 Gaussian 16:  EM64L-G16RevA.03 25-Dec-2016
                 2-Apr-2019 
 ******************************************
 ----------------------------------------------------------------------
 #m062x/cc-pVTZ Opt=(calcfc,verytight,gdiis,maxcycles=900) freq IOP(2/1
 6=3) scf=(maxcycle=900)
 ----------------------------------------------------------------------

 Warning!  Use of Opt=GDIIS is deprecated since it is seldom a good choice.

 1/6=900,7=1,10=4,18=20,19=11,26=3,38=1/1,3;
 2/9=110,12=2,16=3,17=6,18=5,40=1/2;
 3/5=16,6=1,11=2,25=1,30=1,71=2,74=-55,140=1/1,2,3;
 4//1;
 5/5=2,7=900,38=5/2;
 8/6=4,10=90,11=11/1;
 11/6=1,8=1,9=11,15=111,16=1/1,2,10;
 10/6=1,13=1/2;
 6/7=2,8=2,9=2,10=2,28=1/1;
 7/10=1,18=20,25=1/1,2,3,16;
 1/6=900,7=1,10=4,18=20,19=11,26=3/3(2);
 2/9=110,16=3/2;
 99//99;
 2/9=110,16=3/2;
 3/5=16,6=1,11=2,25=1,30=1,71=1,74=-55/1,2,3;
 4/5=5,16=3,69=1/1;
 5/5=2,7=900,38=5/2;
 7//1,2,3,16;
 1/6=900,7=1,18=20,19=11,26=3/3(-5);
 2/9=110,16=3/2;
 6/7=2,8=2,9=2,10=2,19=2,28=1/1;
 99/9=1/99;
 -----
 Title
 -----
 Symbolic Z-matrix:
 Charge =  0 Multiplicity = 1
 C                    -5.94477  -1.13905   0. 
 C                    -5.22751  -0.05806   0. 
 H                    -6.53172  -2.02831   0. 
 H                    -5.68725   0.92324   0. 
 C                    -3.81709  -0.18231   0. 
 C                    -2.52303  -0.28662   0. 
 H                    -1.89757   0.59824   0. 
 H                    -2.0484   -1.26087   0. 
 

 GradGradGradGradGradGradGradGradGradGradGradGradGradGradGradGradGradGrad
 Berny optimization.
 Initialization pass.
                           ----------------------------
                           !    Initial Parameters    !
                           ! (Angstroms and Degrees)  !
 --------------------------                            --------------------------
 ! Name  Definition              Value          Derivative Info.                !
 --------------------------------------------------------------------------------
 ! R1    R(1,2)                  1.2973         calculate D2E/DX2 analytically  !
 ! R2    R(1,3)                  1.0655         calculate D2E/DX2 analytically  !
 ! R3    R(2,4)                  1.0837         calculate D2E/DX2 analytically  !
 ! R4    R(2,5)                  1.4159         calculate D2E/DX2 analytically  !
 ! R5    R(5,6)                  1.2983         calculate D2E/DX2 analytically  !
 ! R6    R(6,7)                  1.0836         calculate D2E/DX2 analytically  !
 ! R7    R(6,8)                  1.0837         calculate D2E/DX2 analytically  !
 ! A1    A(1,2,4)              121.3317         calculate D2E/DX2 analytically  !
 ! A2    A(1,2,5)              118.5307         calculate D2E/DX2 analytically  !
 ! A3    A(4,2,5)              120.1376         calculate D2E/DX2 analytically  !
 ! A4    A(5,6,7)              120.646          calculate D2E/DX2 analytically  !
 ! A5    A(5,6,8)              120.5826         calculate D2E/DX2 analytically  !
 ! A6    A(7,6,8)              118.7714         calculate D2E/DX2 analytically  !
 ! A7    L(2,1,3,8,-1)         179.8614         calculate D2E/DX2 analytically  !
 ! A8    L(2,5,6,3,-1)         180.426          calculate D2E/DX2 analytically  !
 ! A9    L(2,1,3,8,-2)         180.0            calculate D2E/DX2 analytically  !
 ! A10   L(2,5,6,3,-2)         180.0            calculate D2E/DX2 analytically  !
 ! D1    D(1,2,6,7)            180.0            calculate D2E/DX2 analytically  !
 ! D2    D(1,2,6,8)              0.0            calculate D2E/DX2 analytically  !
 ! D3    D(4,2,6,7)              0.0            calculate D2E/DX2 analytically  !
 ! D4    D(4,2,6,8)            180.0            calculate D2E/DX2 analytically  !
 --------------------------------------------------------------------------------
 Trust Radius=3.00D-01 FncErr=1.00D-07 GrdErr=1.00D-06 EigMax=2.50D+02 EigMin=1.00D-04
 Number of steps in this run=    100 maximum allowed number of steps=    100.
 GradGradGradGradGradGradGradGradGradGradGradGradGradGradGradGradGradGrad

                          Input orientation:                          
 ---------------------------------------------------------------------
 Center     Atomic      Atomic             Coordinates (Angstroms)
 Number     Number       Type             X           Y           Z
 ---------------------------------------------------------------------
      1          6           0       -5.944770   -1.139050    0.000000
      2          6           0       -5.227510   -0.058060    0.000000
      3          1           0       -6.531720   -2.028310    0.000000
      4          1           0       -5.687250    0.923240    0.000000
      5          6           0       -3.817090   -0.182310    0.000000
      6          6           0       -2.523030   -0.286620    0.000000
      7          1           0       -1.897570    0.598240    0.000000
      8          1           0       -2.048400   -1.260870    0.000000
 ---------------------------------------------------------------------
                    Distance matrix (angstroms):
                    1          2          3          4          5
     1  C    0.000000
     2  C    1.297305   0.000000
     3  H    1.065502   2.362805   0.000000
     4  H    2.078306   1.083656   3.069980   0.000000
     5  C    2.332890   1.415882   3.282824   2.172496   0.000000
     6  C    3.526321   2.714121   4.370707   3.387632   1.298257
     7  H    4.404317   3.393999   5.326736   3.803590   2.072152
     8  H    3.898274   3.399043   4.548530   4.244004   2.071607
                    6          7          8
     6  C    0.000000
     7  H    1.083595   0.000000
     8  H    1.083714   1.865218   0.000000
 Stoichiometry    C4H4
 Framework group  CS[SG(C4H4)]
 Deg. of freedom    13
 Full point group                 CS      NOp   2
 Largest Abelian subgroup         CS      NOp   2
 Largest concise Abelian subgroup C1      NOp   1
                         Standard orientation:                         
 ---------------------------------------------------------------------
 Center     Atomic      Atomic             Coordinates (Angstroms)
 Number     Number       Type             X           Y           Z
 ---------------------------------------------------------------------
      1          6           0        0.027114   -1.767386    0.000000
      2          6           0        0.706059   -0.661929   -0.000000
      3          1           0       -0.532711   -2.673968    0.000000
      4          1           0        1.789706   -0.666194   -0.000000
      5          6           0        0.000000    0.565346   -0.000000
      6          6           0       -0.639018    1.695446    0.000000
      7          1           0       -0.099386    2.635113   -0.000000
      8          1           0       -1.722534    1.716185    0.000000
 ---------------------------------------------------------------------
 Rotational constants (GHZ):          43.0509894           4.8439283           4.3540300
 Standard basis: CC-pVTZ (5D, 7F)
 There are   140 symmetry adapted cartesian basis functions of A'  symmetry.
 There are    60 symmetry adapted cartesian basis functions of A"  symmetry.
 There are   120 symmetry adapted basis functions of A'  symmetry.
 There are    56 symmetry adapted basis functions of A"  symmetry.
   176 basis functions,   276 primitive gaussians,   200 cartesian basis functions
    14 alpha electrons       14 beta electrons
       nuclear repulsion energy        89.5395367260 Hartrees.
 NAtoms=    8 NActive=    8 NUniq=    8 SFac= 1.00D+00 NAtFMM=   60 NAOKFM=F Big=F
 Integral buffers will be    131072 words long.
 Raffenetti 2 integral format.
 Two-electron integral symmetry is turned on.
 One-electron integrals computed using PRISM.
 NBasis=   176 RedAO= T EigKep=  1.50D-04  NBF=   120    56
 NBsUse=   176 1.00D-06 EigRej= -1.00D+00 NBFU=   120    56
 ExpMin= 1.03D-01 ExpMax= 8.24D+03 ExpMxC= 2.81D+02 IAcc=3 IRadAn=         5 AccDes= 0.00D+00
 Harris functional with IExCor= 1009 and IRadAn=       5 diagonalized for initial guess.
 HarFok:  IExCor= 1009 AccDes= 0.00D+00 IRadAn=         5 IDoV= 1 UseB2=F ITyADJ=14
 ICtDFT=  3500011 ScaDFX=  1.000000  1.000000  1.000000  1.000000
 FoFCou: FMM=F IPFlag=           0 FMFlag=      100000 FMFlg1=           0
         NFxFlg=           0 DoJE=T BraDBF=F KetDBF=T FulRan=T
         wScrn=  0.000000 ICntrl=       500 IOpCl=  0 I1Cent=   200000004 NGrid=           0
         NMat0=    1 NMatS0=      1 NMatT0=    0 NMatD0=    1 NMtDS0=    0 NMtDT0=    0
 Petite list used in FoFCou.
 Initial guess orbital symmetries:
       Occupied  (A') (A') (A') (A') (A') (A') (A') (A') (A') (A')
                 (A') (A") (A") (A')
       Virtual   (A') (A") (A") (A') (A') (A') (A') (A') (A') (A')
                 (A') (A") (A') (A") (A') (A') (A") (A') (A') (A")
                 (A') (A') (A') (A") (A') (A') (A") (A') (A") (A')
                 (A') (A') (A') (A") (A') (A") (A') (A') (A') (A")
                 (A') (A") (A') (A") (A') (A') (A") (A') (A') (A")
                 (A') (A') (A") (A') (A') (A') (A") (A') (A') (A')
                 (A') (A') (A") (A") (A') (A') (A") (A') (A') (A")
                 (A') (A') (A') (A') (A') (A") (A') (A") (A') (A')
                 (A") (A") (A") (A') (A") (A') (A') (A") (A") (A')
                 (A') (A") (A') (A") (A') (A") (A') (A") (A') (A")
                 (A') (A') (A') (A') (A") (A") (A') (A") (A') (A")
                 (A') (A') (A') (A') (A") (A') (A") (A') (A') (A")
                 (A') (A') (A") (A') (A") (A') (A") (A') (A') (A")
                 (A') (A') (A") (A') (A") (A') (A") (A') (A') (A")
                 (A') (A') (A") (A') (A') (A") (A") (A') (A') (A')
                 (A') (A') (A") (A') (A') (A') (A') (A') (A') (A')
                 (A') (A')
 The electronic state of the initial guess is 1-A'.
 Keep R1 ints in memory in symmetry-blocked form, NReq=183150043.
 Requested convergence on RMS density matrix=1.00D-08 within 900 cycles.
 Requested convergence on MAX density matrix=1.00D-06.
 Requested convergence on             energy=1.00D-06.
 No special actions if energy rises.
 Integral accuracy reduced to 1.0D-05 until final iterations.
 Initial convergence to 1.0D-05 achieved.  Increase integral accuracy.
 SCF Done:  E(RM062X) =  -154.558476888     A.U. after   18 cycles
            NFock= 18  Conv=0.88D-08     -V/T= 2.0063
 DoSCS=F DFT=T ScalE2(SS,OS)=  1.000000  1.000000
 Range of M.O.s used for correlation:     1   176
 NBasis=   176 NAE=    14 NBE=    14 NFC=     0 NFV=     0
 NROrb=    176 NOA=    14 NOB=    14 NVA=   162 NVB=   162

 **** Warning!!: The largest alpha MO coefficient is  0.18957944D+02

 Symmetrizing basis deriv contribution to polar:
 IMax=3 JMax=2 DiffMx= 0.00D+00
 G2DrvN: will do     9 centers at a time, making    1 passes.
 Calling FoFCou, ICntrl=  3107 FMM=F I1Cent=   0 AccDes= 0.00D+00.
 End of G2Drv F.D. properties file   721 does not exist.
 End of G2Drv F.D. properties file   722 does not exist.
 End of G2Drv F.D. properties file   788 does not exist.
          IDoAtm=11111111
          Differentiating once with respect to nuclear coordinates.
 Keep R1 ints in memory in symmetry-blocked form, NReq=183153762.
          There are    27 degrees of freedom in the 1st order CPHF.  IDoFFX=6 NUNeed=     0.
     21 vectors produced by pass  0 Test12= 8.40D-15 3.70D-09 XBig12= 1.45D-01 2.24D-01.
 AX will form    21 AO Fock derivatives at one time.
     21 vectors produced by pass  1 Test12= 8.40D-15 3.70D-09 XBig12= 5.15D-02 6.52D-02.
     21 vectors produced by pass  2 Test12= 8.40D-15 3.70D-09 XBig12= 1.10D-03 8.59D-03.
     21 vectors produced by pass  3 Test12= 8.40D-15 3.70D-09 XBig12= 8.79D-06 7.86D-04.
     21 vectors produced by pass  4 Test12= 8.40D-15 3.70D-09 XBig12= 5.03D-08 3.93D-05.
     21 vectors produced by pass  5 Test12= 8.40D-15 3.70D-09 XBig12= 2.68D-10 2.58D-06.
     19 vectors produced by pass  6 Test12= 8.40D-15 3.70D-09 XBig12= 1.21D-12 1.47D-07.
      5 vectors produced by pass  7 Test12= 8.40D-15 3.70D-09 XBig12= 4.75D-15 9.72D-09.
 InvSVY:  IOpt=1 It=  1 EMax= 8.88D-16
 Solved reduced A of dimension   150 with    21 vectors.
 End of Minotr F.D. properties file   721 does not exist.
 End of Minotr F.D. properties file   722 does not exist.
 End of Minotr F.D. properties file   788 does not exist.

 **********************************************************************

            Population analysis using the SCF density.

 **********************************************************************

 Orbital symmetries:
       Occupied  (A') (A') (A') (A') (A') (A') (A') (A') (A') (A')
                 (A') (A") (A") (A')
       Virtual   (A') (A") (A') (A') (A') (A") (A') (A') (A') (A')
                 (A') (A") (A') (A") (A') (A') (A") (A') (A') (A")
                 (A') (A') (A') (A') (A") (A') (A") (A') (A') (A")
                 (A') (A') (A') (A") (A') (A") (A') (A') (A') (A")
                 (A") (A') (A') (A") (A') (A') (A") (A') (A') (A")
                 (A') (A') (A') (A") (A') (A") (A') (A') (A') (A')
                 (A') (A') (A") (A") (A') (A') (A") (A') (A') (A")
                 (A') (A') (A') (A') (A') (A") (A') (A") (A') (A")
                 (A") (A') (A") (A') (A') (A") (A") (A') (A") (A')
                 (A") (A') (A') (A") (A') (A") (A') (A") (A') (A")
                 (A') (A') (A') (A") (A') (A") (A') (A") (A') (A")
                 (A') (A') (A') (A") (A') (A") (A') (A') (A") (A')
                 (A') (A") (A') (A') (A") (A") (A') (A') (A") (A')
                 (A') (A") (A') (A') (A") (A') (A") (A') (A') (A")
                 (A') (A") (A') (A') (A') (A") (A") (A') (A') (A')
                 (A') (A') (A") (A') (A') (A') (A') (A') (A') (A')
                 (A') (A')
 The electronic state is 1-A'.
 Alpha  occ. eigenvalues --  -10.60027 -10.57362 -10.56998 -10.55970  -0.92046
 Alpha  occ. eigenvalues --   -0.84844  -0.69383  -0.60751  -0.54961  -0.53400
 Alpha  occ. eigenvalues --   -0.51270  -0.41772  -0.31130  -0.21956
 Alpha virt. eigenvalues --   -0.05986  -0.00822   0.08588   0.09935   0.12196
 Alpha virt. eigenvalues --    0.12581   0.13823   0.20856   0.24143   0.28418
 Alpha virt. eigenvalues --    0.30562   0.31170   0.34476   0.36625   0.38153
 Alpha virt. eigenvalues --    0.41040   0.42286   0.43154   0.46589   0.47201
 Alpha virt. eigenvalues --    0.47801   0.50427   0.50994   0.54817   0.54921
 Alpha virt. eigenvalues --    0.57034   0.64178   0.66280   0.68243   0.69565
 Alpha virt. eigenvalues --    0.72012   0.73688   0.78770   0.80308   0.82623
 Alpha virt. eigenvalues --    0.86629   0.92193   0.92958   0.94358   0.95450
 Alpha virt. eigenvalues --    1.03724   1.05175   1.10813   1.12318   1.14002
 Alpha virt. eigenvalues --    1.18859   1.19623   1.26289   1.26805   1.31787
 Alpha virt. eigenvalues --    1.34309   1.34622   1.40147   1.42118   1.43718
 Alpha virt. eigenvalues --    1.48485   1.48797   1.53358   1.56736   1.66142
 Alpha virt. eigenvalues --    1.78941   1.93429   2.01470   2.13152   2.14452
 Alpha virt. eigenvalues --    2.18022   2.25777   2.28305   2.31118   2.33389
 Alpha virt. eigenvalues --    2.34021   2.43028   2.47703   2.48814   2.52865
 Alpha virt. eigenvalues --    2.53692   2.56327   2.57332   2.57467   2.65207
 Alpha virt. eigenvalues --    2.65725   2.66412   2.70133   2.74060   2.75640
 Alpha virt. eigenvalues --    2.77708   2.81322   2.81461   2.83430   2.84740
 Alpha virt. eigenvalues --    2.89344   2.89385   2.93449   2.94295   2.98544
 Alpha virt. eigenvalues --    2.99017   3.03137   3.03799   3.06072   3.09221
 Alpha virt. eigenvalues --    3.09455   3.12214   3.16657   3.19543   3.19660
 Alpha virt. eigenvalues --    3.20595   3.28782   3.30931   3.36105   3.36605
 Alpha virt. eigenvalues --    3.42445   3.43816   3.50868   3.51430   3.53263
 Alpha virt. eigenvalues --    3.63443   3.64985   3.66919   3.68021   3.69746
 Alpha virt. eigenvalues --    3.76560   3.78891   3.81578   3.86361   3.86996
 Alpha virt. eigenvalues --    3.94285   3.94327   4.00312   4.01462   4.03490
 Alpha virt. eigenvalues --    4.09911   4.17736   4.18961   4.26545   4.29437
 Alpha virt. eigenvalues --    4.37159   4.53839   4.59666   4.62343   4.73802
 Alpha virt. eigenvalues --    4.81389   4.85916   4.86689   4.88795   4.92528
 Alpha virt. eigenvalues --    4.98478   5.05729   5.08623   5.18146   5.25947
 Alpha virt. eigenvalues --    5.36087   5.46543   5.48402   5.61355   5.84317
 Alpha virt. eigenvalues --    5.94135   6.17613   6.22111   8.81516  10.82209
 Alpha virt. eigenvalues --   14.03730  14.68819
          Condensed to atoms (all electrons):
               1          2          3          4          5          6
     1  C    5.393219   0.511472   0.414681  -0.087828   0.076321   0.008247
     2  C    0.511472   4.779069  -0.046335   0.392183   0.385993  -0.045990
     3  H    0.414681  -0.046335   0.442019   0.004125   0.006955   0.000290
     4  H   -0.087828   0.392183   0.004125   0.676947  -0.096058   0.004536
     5  C    0.076321   0.385993   0.006955  -0.096058   5.123817   0.605632
     6  C    0.008247  -0.045990   0.000290   0.004536   0.605632   4.963584
     7  H    0.003545  -0.006654   0.000053   0.002812  -0.089890   0.408303
     8  H   -0.008520   0.009579  -0.000146  -0.001070  -0.057533   0.397505
               7          8
     1  C    0.003545  -0.008520
     2  C   -0.006654   0.009579
     3  H    0.000053  -0.000146
     4  H    0.002812  -0.001070
     5  C   -0.089890  -0.057533
     6  C    0.408303   0.397505
     7  H    0.570515  -0.041926
     8  H   -0.041926   0.550266
 Mulliken charges:
               1
     1  C   -0.311137
     2  C    0.020684
     3  H    0.178357
     4  H    0.104352
     5  C    0.044762
     6  C   -0.342107
     7  H    0.153243
     8  H    0.151845
 Sum of Mulliken charges =  -0.00000
 Mulliken charges with hydrogens summed into heavy atoms:
               1
     1  C   -0.132779
     2  C    0.125036
     5  C    0.044762
     6  C   -0.037019
 APT charges:
               1
     1  C   -0.416580
     2  C   -0.618941
     3  H    0.638270
     4  H    0.345309
     5  C   -0.102324
     6  C   -0.647415
     7  H    0.441997
     8  H    0.359684
 Sum of APT charges =  -0.00000
 APT charges with hydrogens summed into heavy atoms:
               1
     1  C    0.221690
     2  C   -0.273632
     5  C   -0.102324
     6  C    0.154266
 Electronic spatial extent (au):  <R**2>=            301.7181
 Charge=             -0.0000 electrons
 Dipole moment (field-independent basis, Debye):
    X=             -0.4549    Y=              0.5316    Z=              0.0000  Tot=              0.6997
 Quadrupole moment (field-independent basis, Debye-Ang):
   XX=            -23.8853   YY=            -18.9608   ZZ=            -27.0956
   XY=              0.7057   XZ=              0.0000   YZ=             -0.0000
 Traceless Quadrupole moment (field-independent basis, Debye-Ang):
   XX=             -0.5714   YY=              4.3531   ZZ=             -3.7817
   XY=              0.7057   XZ=              0.0000   YZ=             -0.0000
 Octapole moment (field-independent basis, Debye-Ang**2):
  XXX=             -1.8512  YYY=             -0.8516  ZZZ=              0.0000  XYY=             -6.0560
  XXY=              3.1928  XXZ=              0.0000  XZZ=              0.2362  YZZ=              0.0729
  YYZ=              0.0000  XYZ=             -0.0000
 Hexadecapole moment (field-independent basis, Debye-Ang**3):
 XXXX=            -80.2537 YYYY=           -260.5028 ZZZZ=            -31.6251 XXXY=             26.8434
 XXXZ=              0.0000 YYYX=             47.9652 YYYZ=             -0.0000 ZZZX=              0.0000
 ZZZY=             -0.0000 XXYY=            -64.8963 XXZZ=            -20.8711 YYZZ=            -64.1797
 XXYZ=             -0.0000 YYXZ=              0.0000 ZZXY=             12.3682
 N-N= 8.953953672597D+01 E-N=-5.368277104680D+02  KE= 1.535933797751D+02
 Symmetry A'   KE= 1.492703352310D+02
 Symmetry A"   KE= 4.323044544031D+00
  Exact polarizability:   0.000   0.000   0.000   0.000   0.000   0.000
 Approx polarizability:  52.265 -11.771 201.204  -0.000   0.000  31.904
 Calling FoFJK, ICntrl=    100147 FMM=F ISym2X=1 I1Cent= 0 IOpClX= 0 NMat=1 NMatS=1 NMatT=0.
