 Entering Gaussian System, Link 0=g16
 Input=nateC=O=C.com
 Output=nateC=O=C.log
 Initial command:
 /shared/centos7/gaussian/g16/l1.exe "/scratch/dinius.ab/QMscratch/Gau-48799.inp" -scrdir="/scratch/dinius.ab/QMscratch/"
 Default is to use a total of  20 processors:
                               20 via shared-memory
                                1 via Linda
 Entering Link 1 = /shared/centos7/gaussian/g16/l1.exe PID=     48800.
  
 Copyright (c) 1988,1990,1992,1993,1995,1998,2003,2009,2016,
            Gaussian, Inc.  All Rights Reserved.
  
 This is part of the Gaussian(R) 16 program.  It is based on
 the Gaussian(R) 09 system (copyright 2009, Gaussian, Inc.),
 the Gaussian(R) 03 system (copyright 2003, Gaussian, Inc.),
 the Gaussian(R) 98 system (copyright 1998, Gaussian, Inc.),
 the Gaussian(R) 94 system (copyright 1995, Gaussian, Inc.),
 the Gaussian 92(TM) system (copyright 1992, Gaussian, Inc.),
 the Gaussian 90(TM) system (copyright 1990, Gaussian, Inc.),
 the Gaussian 88(TM) system (copyright 1988, Gaussian, Inc.),
 the Gaussian 86(TM) system (copyright 1986, Carnegie Mellon
 University), and the Gaussian 82(TM) system (copyright 1983,
 Carnegie Mellon University). Gaussian is a federally registered
 trademark of Gaussian, Inc.
  
 This software contains proprietary and confidential information,
 including trade secrets, belonging to Gaussian, Inc.
  
 This software is provided under written license and may be
 used, copied, transmitted, or stored only in accord with that
 written license.
  
 The following legend is applicable only to US Government
 contracts under FAR:
  
                    RESTRICTED RIGHTS LEGEND
  
 Use, reproduction and disclosure by the US Government is
 subject to restrictions as set forth in subparagraphs (a)
 and (c) of the Commercial Computer Software - Restricted
 Rights clause in FAR 52.227-19.
  
 Gaussian, Inc.
 340 Quinnipiac St., Bldg. 40, Wallingford CT 06492
  
  
 ---------------------------------------------------------------
 Warning -- This program may not be used in any manner that
 competes with the business of Gaussian, Inc. or will provide
 assistance to any competitor of Gaussian, Inc.  The licensee
 of this program is prohibited from giving any competitor of
 Gaussian, Inc. access to this program.  By using this program,
 the user acknowledges that Gaussian, Inc. is engaged in the
 business of creating and licensing software in the field of
 computational chemistry and represents and warrants to the
 licensee that it is not a competitor of Gaussian, Inc. and that
 it will not use this program in any manner prohibited above.
 ---------------------------------------------------------------
  

 Cite this work as:
 Gaussian 16, Revision A.03,
 M. J. Frisch, G. W. Trucks, H. B. Schlegel, G. E. Scuseria, 
 M. A. Robb, J. R. Cheeseman, G. Scalmani, V. Barone, 
 G. A. Petersson, H. Nakatsuji, X. Li, M. Caricato, A. V. Marenich, 
 J. Bloino, B. G. Janesko, R. Gomperts, B. Mennucci, H. P. Hratchian, 
 J. V. Ortiz, A. F. Izmaylov, J. L. Sonnenberg, D. Williams-Young, 
 F. Ding, F. Lipparini, F. Egidi, J. Goings, B. Peng, A. Petrone, 
 T. Henderson, D. Ranasinghe, V. G. Zakrzewski, J. Gao, N. Rega, 
 G. Zheng, W. Liang, M. Hada, M. Ehara, K. Toyota, R. Fukuda, 
 J. Hasegawa, M. Ishida, T. Nakajima, Y. Honda, O. Kitao, H. Nakai, 
 T. Vreven, K. Throssell, J. A. Montgomery, Jr., J. E. Peralta, 
 F. Ogliaro, M. J. Bearpark, J. J. Heyd, E. N. Brothers, K. N. Kudin, 
 V. N. Staroverov, T. A. Keith, R. Kobayashi, J. Normand, 
 K. Raghavachari, A. P. Rendell, J. C. Burant, S. S. Iyengar, 
 J. Tomasi, M. Cossi, J. M. Millam, M. Klene, C. Adamo, R. Cammi, 
 J. W. Ochterski, R. L. Martin, K. Morokuma, O. Farkas, 
 J. B. Foresman, and D. J. Fox, Gaussian, Inc., Wallingford CT, 2016.
 
 ******************************************
 Gaussian 16:  EM64L-G16RevA.03 25-Dec-2016
                 2-Apr-2019 
 ******************************************
 ----------------------------------------------------------------------
 #m062x/cc-pVTZ Opt=(calcfc,verytight,gdiis,maxcycles=900) freq IOP(2/1
 6=3) scf=(maxcycle=900)
 ----------------------------------------------------------------------

 Warning!  Use of Opt=GDIIS is deprecated since it is seldom a good choice.

 1/6=900,7=1,10=4,18=20,19=11,26=3,38=1/1,3;
 2/9=110,12=2,16=3,17=6,18=5,40=1/2;
 3/5=16,6=1,11=2,25=1,30=1,71=2,74=-55,140=1/1,2,3;
 4//1;
 5/5=2,7=900,38=5/2;
 8/6=4,10=90,11=11/1;
 11/6=1,8=1,9=11,15=111,16=1/1,2,10;
 10/6=1,13=1/2;
 6/7=2,8=2,9=2,10=2,28=1/1;
 7/10=1,18=20,25=1/1,2,3,16;
 1/6=900,7=1,10=4,18=20,19=11,26=3/3(2);
 2/9=110,16=3/2;
 99//99;
 2/9=110,16=3/2;
 3/5=16,6=1,11=2,25=1,30=1,71=1,74=-55/1,2,3;
 4/5=5,16=3,69=1/1;
 5/5=2,7=900,38=5/2;
 7//1,2,3,16;
 1/6=900,7=1,18=20,19=11,26=3/3(-5);
 2/9=110,16=3/2;
 6/7=2,8=2,9=2,10=2,19=2,28=1/1;
 99/9=1/99;
 -----
 Title
 -----
 Symbolic Z-matrix:
 Charge =  0 Multiplicity = 1
 C                    -4.84844   0.33639   0.02468 
 O                    -4.00267   1.13662   0.65378 
 H                    -5.72466   0.03147   0.60353 
 H                    -4.65282   0.02154  -1.00362 
 C                    -2.93801   1.51265  -0.03657 
 H                    -2.24551   2.1736    0.492 
 H                    -2.79273   1.16681  -1.06325 
 

 GradGradGradGradGradGradGradGradGradGradGradGradGradGradGradGradGradGrad
 Berny optimization.
 Initialization pass.
                           ----------------------------
                           !    Initial Parameters    !
                           ! (Angstroms and Degrees)  !
 --------------------------                            --------------------------
 ! Name  Definition              Value          Derivative Info.                !
 --------------------------------------------------------------------------------
 ! R1    R(1,2)                  1.3234         calculate D2E/DX2 analytically  !
 ! R2    R(1,3)                  1.0935         calculate D2E/DX2 analytically  !
 ! R3    R(1,4)                  1.0931         calculate D2E/DX2 analytically  !
 ! R4    R(2,5)                  1.3234         calculate D2E/DX2 analytically  !
 ! R5    R(5,6)                  1.0935         calculate D2E/DX2 analytically  !
 ! R6    R(5,7)                  1.0931         calculate D2E/DX2 analytically  !
 ! A1    A(2,1,3)              115.4076         calculate D2E/DX2 analytically  !
 ! A2    A(2,1,4)              120.4634         calculate D2E/DX2 analytically  !
 ! A3    A(3,1,4)              124.129          calculate D2E/DX2 analytically  !
 ! A4    A(1,2,5)              115.9736         calculate D2E/DX2 analytically  !
 ! A5    A(2,5,6)              115.4069         calculate D2E/DX2 analytically  !
 ! A6    A(2,5,7)              120.4629         calculate D2E/DX2 analytically  !
 ! A7    A(6,5,7)              124.1302         calculate D2E/DX2 analytically  !
 ! D1    D(3,1,2,5)           -179.9999         calculate D2E/DX2 analytically  !
 ! D2    D(4,1,2,5)              0.0003         calculate D2E/DX2 analytically  !
 ! D3    D(2,1,3,4)           -179.9997         calculate D2E/DX2 analytically  !
 ! D4    D(1,2,5,6)           -179.9999         calculate D2E/DX2 analytically  !
 ! D5    D(1,2,5,7)             -0.0002         calculate D2E/DX2 analytically  !
 ! D6    D(2,5,6,7)            179.9997         calculate D2E/DX2 analytically  !
 --------------------------------------------------------------------------------
 Trust Radius=3.00D-01 FncErr=1.00D-07 GrdErr=1.00D-06 EigMax=2.50D+02 EigMin=1.00D-04
 Number of steps in this run=    100 maximum allowed number of steps=    100.
 GradGradGradGradGradGradGradGradGradGradGradGradGradGradGradGradGradGrad

                          Input orientation:                          
 ---------------------------------------------------------------------
 Center     Atomic      Atomic             Coordinates (Angstroms)
 Number     Number       Type             X           Y           Z
 ---------------------------------------------------------------------
      1          6           0       -4.848440    0.336390    0.024680
      2          8           0       -4.002670    1.136620    0.653780
      3          1           0       -5.724660    0.031470    0.603530
      4          1           0       -4.652820    0.021540   -1.003620
      5          6           0       -2.938010    1.512650   -0.036570
      6          1           0       -2.245510    2.173600    0.492000
      7          1           0       -2.792730    1.166810   -1.063250
 ---------------------------------------------------------------------
                    Distance matrix (angstroms):
                    1          2          3          4          5
     1  C    0.000000
     2  O    1.323428   0.000000
     3  H    1.093529   2.046737   0.000000
     4  H    1.093068   2.100732   1.931805   0.000000
     5  C    2.244344   1.323436   3.220099   2.469649   0.000000
     6  H    3.220089   2.046732   4.087254   3.558565   1.093525
     7  H    2.469642   2.100728   3.558562   2.185208   1.093061
                    6          7
     6  H    0.000000
     7  H    1.931807   0.000000
 Stoichiometry    C2H4O
 Framework group  C1[X(C2H4O)]
 Deg. of freedom    15
 Full point group                 C1      NOp   1
 Largest Abelian subgroup         C1      NOp   1
 Largest concise Abelian subgroup C1      NOp   1
                         Standard orientation:                         
 ---------------------------------------------------------------------
 Center     Atomic      Atomic             Coordinates (Angstroms)
 Number     Number       Type             X           Y           Z
 ---------------------------------------------------------------------
      1          6           0       -1.122170   -0.191870   -0.000001
      2          8           0       -0.000002    0.509700    0.000001
      3          1           0       -2.043631    0.396955   -0.000001
      4          1           0       -1.092605   -1.284538    0.000003
      5          6           0        1.122174   -0.191872   -0.000001
      6          1           0        2.043623    0.396966    0.000002
      7          1           0        1.092603   -1.284533    0.000001
 ---------------------------------------------------------------------
 Rotational constants (GHZ):          58.6818342          12.3122259          10.1769640
 Standard basis: CC-pVTZ (5D, 7F)
 There are   165 symmetry adapted cartesian basis functions of A   symmetry.
 There are   146 symmetry adapted basis functions of A   symmetry.
   146 basis functions,   224 primitive gaussians,   165 cartesian basis functions
    12 alpha electrons       12 beta electrons
       nuclear repulsion energy        72.4178491182 Hartrees.
 NAtoms=    7 NActive=    7 NUniq=    7 SFac= 1.00D+00 NAtFMM=   60 NAOKFM=F Big=F
 Integral buffers will be    131072 words long.
 Raffenetti 2 integral format.
 Two-electron integral symmetry is turned on.
 One-electron integrals computed using PRISM.
 NBasis=   146 RedAO= T EigKep=  1.39D-03  NBF=   146
 NBsUse=   146 1.00D-06 EigRej= -1.00D+00 NBFU=   146
 ExpMin= 1.03D-01 ExpMax= 1.53D+04 ExpMxC= 5.22D+02 IAcc=3 IRadAn=         5 AccDes= 0.00D+00
 Harris functional with IExCor= 1009 and IRadAn=       5 diagonalized for initial guess.
 HarFok:  IExCor= 1009 AccDes= 0.00D+00 IRadAn=         5 IDoV= 1 UseB2=F ITyADJ=14
 ICtDFT=  3500011 ScaDFX=  1.000000  1.000000  1.000000  1.000000
 FoFCou: FMM=F IPFlag=           0 FMFlag=      100000 FMFlg1=           0
         NFxFlg=           0 DoJE=T BraDBF=F KetDBF=T FulRan=T
         wScrn=  0.000000 ICntrl=       500 IOpCl=  0 I1Cent=   200000004 NGrid=           0
         NMat0=    1 NMatS0=      1 NMatT0=    0 NMatD0=    1 NMtDS0=    0 NMtDT0=    0
 Petite list used in FoFCou.
 Keep R1 ints in memory in canonical form, NReq=77430765.
 Requested convergence on RMS density matrix=1.00D-08 within 900 cycles.
 Requested convergence on MAX density matrix=1.00D-06.
 Requested convergence on             energy=1.00D-06.
 No special actions if energy rises.
 Integral accuracy reduced to 1.0D-05 until final iterations.
 Initial convergence to 1.0D-05 achieved.  Increase integral accuracy.
 SCF Done:  E(RM062X) =  -153.687415070     A.U. after   12 cycles
            NFock= 12  Conv=0.53D-08     -V/T= 2.0068
 DoSCS=F DFT=T ScalE2(SS,OS)=  1.000000  1.000000
 Range of M.O.s used for correlation:     1   146
 NBasis=   146 NAE=    12 NBE=    12 NFC=     0 NFV=     0
 NROrb=    146 NOA=    12 NOB=    12 NVA=   134 NVB=   134
 Symmetrizing basis deriv contribution to polar:
 IMax=3 JMax=2 DiffMx= 0.00D+00
 G2DrvN: will do     8 centers at a time, making    1 passes.
 Calling FoFCou, ICntrl=  3107 FMM=F I1Cent=   0 AccDes= 0.00D+00.
 End of G2Drv F.D. properties file   721 does not exist.
 End of G2Drv F.D. properties file   722 does not exist.
 End of G2Drv F.D. properties file   788 does not exist.
          IDoAtm=1111111
          Differentiating once with respect to nuclear coordinates.
 Keep R1 ints in memory in canonical form, NReq=77367324.
          There are    24 degrees of freedom in the 1st order CPHF.  IDoFFX=6 NUNeed=     0.
     18 vectors produced by pass  0 Test12= 6.70D-15 4.17D-09 XBig12= 1.05D-01 2.10D-01.
 AX will form    18 AO Fock derivatives at one time.
     18 vectors produced by pass  1 Test12= 6.70D-15 4.17D-09 XBig12= 2.68D-02 7.38D-02.
     18 vectors produced by pass  2 Test12= 6.70D-15 4.17D-09 XBig12= 3.94D-04 5.61D-03.
     18 vectors produced by pass  3 Test12= 6.70D-15 4.17D-09 XBig12= 3.23D-06 4.54D-04.
     18 vectors produced by pass  4 Test12= 6.70D-15 4.17D-09 XBig12= 1.98D-08 2.67D-05.
     18 vectors produced by pass  5 Test12= 6.70D-15 4.17D-09 XBig12= 7.54D-11 2.02D-06.
     13 vectors produced by pass  6 Test12= 6.70D-15 4.17D-09 XBig12= 3.11D-13 1.59D-07.
      3 vectors produced by pass  7 Test12= 6.70D-15 4.17D-09 XBig12= 1.25D-15 7.04D-09.
 InvSVY:  IOpt=1 It=  1 EMax= 6.66D-16
 Solved reduced A of dimension   124 with    18 vectors.
 End of Minotr F.D. properties file   721 does not exist.
 End of Minotr F.D. properties file   722 does not exist.
 End of Minotr F.D. properties file   788 does not exist.

 **********************************************************************

            Population analysis using the SCF density.

 **********************************************************************

 Orbital symmetries:
       Occupied  (A) (A) (A) (A) (A) (A) (A) (A) (A) (A) (A) (A)
       Virtual   (A) (A) (A) (A) (A) (A) (A) (A) (A) (A) (A) (A)
                 (A) (A) (A) (A) (A) (A) (A) (A) (A) (A) (A) (A)
                 (A) (A) (A) (A) (A) (A) (A) (A) (A) (A) (A) (A)
                 (A) (A) (A) (A) (A) (A) (A) (A) (A) (A) (A) (A)
                 (A) (A) (A) (A) (A) (A) (A) (A) (A) (A) (A) (A)
                 (A) (A) (A) (A) (A) (A) (A) (A) (A) (A) (A) (A)
                 (A) (A) (A) (A) (A) (A) (A) (A) (A) (A) (A) (A)
                 (A) (A) (A) (A) (A) (A) (A) (A) (A) (A) (A) (A)
                 (A) (A) (A) (A) (A) (A) (A) (A) (A) (A) (A) (A)
                 (A) (A) (A) (A) (A) (A) (A) (A) (A) (A) (A) (A)
                 (A) (A) (A) (A) (A) (A) (A) (A) (A) (A) (A) (A)
                 (A) (A)
 The electronic state is 1-A.
 Alpha  occ. eigenvalues --  -19.75675 -10.58152 -10.58147  -1.26704  -0.83851
 Alpha  occ. eigenvalues --   -0.70382  -0.60290  -0.58774  -0.54475  -0.46637
 Alpha  occ. eigenvalues --   -0.44723  -0.21598
 Alpha virt. eigenvalues --   -0.01907   0.08613   0.11702   0.12953   0.15705
 Alpha virt. eigenvalues --    0.16158   0.26735   0.31377   0.33763   0.36216
 Alpha virt. eigenvalues --    0.37484   0.38976   0.41858   0.42433   0.49881
 Alpha virt. eigenvalues --    0.50057   0.50708   0.52746   0.53531   0.62835
 Alpha virt. eigenvalues --    0.65190   0.67149   0.70458   0.80754   0.81307
 Alpha virt. eigenvalues --    0.83194   0.87141   0.91519   0.95709   0.99480
 Alpha virt. eigenvalues --    1.04856   1.05613   1.08481   1.08969   1.15033
 Alpha virt. eigenvalues --    1.16346   1.20366   1.27524   1.29772   1.32535
 Alpha virt. eigenvalues --    1.42080   1.46089   1.55508   1.57008   1.61412
 Alpha virt. eigenvalues --    1.78588   1.86749   1.91625   2.07778   2.12916
 Alpha virt. eigenvalues --    2.14049   2.15187   2.27709   2.36585   2.42061
 Alpha virt. eigenvalues --    2.44038   2.53401   2.54136   2.60661   2.69200
 Alpha virt. eigenvalues --    2.71781   2.71881   2.79428   2.85594   2.85903
 Alpha virt. eigenvalues --    2.89956   2.95694   2.96285   2.99358   3.03460
 Alpha virt. eigenvalues --    3.08055   3.08588   3.11359   3.12255   3.17229
 Alpha virt. eigenvalues --    3.17496   3.17560   3.25125   3.27687   3.30434
 Alpha virt. eigenvalues --    3.37366   3.42694   3.42864   3.49134   3.51645
 Alpha virt. eigenvalues --    3.52324   3.60293   3.70550   3.70806   3.71389
 Alpha virt. eigenvalues --    3.80502   3.81428   3.88016   3.88298   3.90239
 Alpha virt. eigenvalues --    3.93479   3.99165   4.04957   4.06163   4.12828
 Alpha virt. eigenvalues --    4.16461   4.49627   4.58641   4.68823   4.70790
 Alpha virt. eigenvalues --    4.74779   4.75287   4.75624   4.80194   4.84461
 Alpha virt. eigenvalues --    4.85962   4.96908   5.09320   5.13679   5.22681
 Alpha virt. eigenvalues --    5.36967   5.44502   5.49468   5.50702   5.69744
 Alpha virt. eigenvalues --    5.85195   5.94175   5.96901   6.27458   6.40923
 Alpha virt. eigenvalues --    6.56115   6.71119   6.79167   6.87944   7.21915
 Alpha virt. eigenvalues --    7.25753  10.63615  12.11942  12.42260
          Condensed to atoms (all electrons):
               1          2          3          4          5          6
     1  C    5.211041   0.403496   0.413705   0.410909  -0.213671   0.005468
     2  O    0.403496   7.366804  -0.033666  -0.043251   0.403492  -0.033666
     3  H    0.413705  -0.033666   0.535511  -0.045340   0.005468  -0.000236
     4  H    0.410909  -0.043251  -0.045340   0.577040  -0.013219  -0.000507
     5  C   -0.213671   0.403492   0.005468  -0.013219   5.211055   0.413706
     6  H    0.005468  -0.033666  -0.000236  -0.000507   0.413706   0.535510
     7  H   -0.013218  -0.043251  -0.000507   0.011722   0.410909  -0.045340
               7
     1  C   -0.013218
     2  O   -0.043251
     3  H   -0.000507
     4  H    0.011722
     5  C    0.410909
     6  H   -0.045340
     7  H    0.577036
 Mulliken charges:
               1
     1  C   -0.217730
     2  O   -0.019957
     3  H    0.125065
     4  H    0.102647
     5  C   -0.217740
     6  H    0.125065
     7  H    0.102650
 Sum of Mulliken charges =  -0.00000
 Mulliken charges with hydrogens summed into heavy atoms:
               1
     1  C    0.009983
     2  O   -0.019957
     5  C    0.009975
 APT charges:
               1
     1  C   -0.644773
     2  O   -0.147376
     3  H    0.424568
     4  H    0.293898
     5  C   -0.644779
     6  H    0.424565
     7  H    0.293897
 Sum of APT charges =  -0.00000
 APT charges with hydrogens summed into heavy atoms:
               1
     1  C    0.073693
     2  O   -0.147376
     5  C    0.073683
 Electronic spatial extent (au):  <R**2>=            156.1658
 Charge=             -0.0000 electrons
 Dipole moment (field-independent basis, Debye):
    X=             -0.0001    Y=             -0.7916    Z=              0.0000  Tot=              0.7916
 Quadrupole moment (field-independent basis, Debye-Ang):
   XX=            -17.2079   YY=            -17.5980   ZZ=            -21.6023
   XY=              0.0000   XZ=              0.0000   YZ=             -0.0000
 Traceless Quadrupole moment (field-independent basis, Debye-Ang):
   XX=              1.5948   YY=              1.2047   ZZ=             -2.7995
   XY=              0.0000   XZ=              0.0000   YZ=             -0.0000
 Octapole moment (field-independent basis, Debye-Ang**2):
  XXX=             -0.0002  YYY=             -0.3628  ZZZ=              0.0000  XYY=             -0.0000
  XXY=              2.6291  XXZ=              0.0000  XZZ=             -0.0001  YZZ=              1.4427
  YYZ=              0.0000  XYZ=              0.0000
 Hexadecapole moment (field-independent basis, Debye-Ang**3):
 XXXX=           -134.9621 YYYY=            -40.2419 ZZZZ=            -24.1949 XXXY=              0.0001
 XXXZ=              0.0000 YYYX=              0.0000 YYYZ=             -0.0000 ZZZX=              0.0000
 ZZZY=             -0.0000 XXYY=            -29.1731 XXZZ=            -34.5249 YYZZ=            -11.8663
 XXYZ=             -0.0000 YYXZ=             -0.0000 ZZXY=              0.0000
 N-N= 7.241784911815D+01 E-N=-5.034200435464D+02  KE= 1.526557132158D+02
  Exact polarizability:   0.000   0.000   0.000   0.000   0.000   0.000
 Approx polarizability: 103.501  -0.000  30.363  -0.000   0.000  25.273
 Calling FoFJK, ICntrl=    100147 FMM=F ISym2X=0 I1Cent= 0 IOpClX= 0 NMat=1 NMatS=1 NMatT=0.
 ***** Axes restored to original set *****
 -------------------------------------------------------------------
 Center     Atomic                   Forces (Hartrees/Bohr)
 Number     Number              X              Y              Z
 -------------------------------------------------------------------
      1        6          -0.018995058   -0.000225415    0.027540255
      2        8           0.010517982   -0.020377234   -0.063387627
      3        1           0.011607937    0.004453311   -0.006696766
      4        1           0.000112639    0.004719330    0.010913882
      5        6           0.010005628    0.017633058    0.026616741
      6        1          -0.009496158   -0.008540658   -0.006020513
      7        1          -0.003752970    0.002337607    0.011034028
 -------------------------------------------------------------------
 Cartesian Forces:  Max     0.063387627 RMS     0.018853007
 FormGI is forming the generalized inverse of G from B-inverse, IUseBI=4.

 GradGradGradGradGradGradGradGradGradGradGradGradGradGradGradGradGradGrad
 Berny optimization.
 Internal  Forces:  Max     0.071290104 RMS     0.018181255
 Search for a local minimum.
 Step number   1 out of a maximum of  100
 All quantities printed in internal units (Hartrees-Bohrs-Radians)
 Swapping is turned off.
 Second derivative matrix not updated -- analytic derivatives used.
 The second derivative matrix:
                          R1        R2        R3        R4        R5
           R1           0.46162
           R2           0.01212   0.34280
           R3           0.00924  -0.00023   0.34183
           R4           0.09217  -0.00555  -0.00463   0.46160
           R5          -0.00555   0.00029  -0.00006   0.01212   0.34280
           R6          -0.00463  -0.00006   0.00113   0.00924  -0.00023
           A1           0.01823   0.00465  -0.00738   0.00405   0.00058
           A2           0.01921  -0.00819   0.00244  -0.00736  -0.00044
           A3          -0.03744   0.00354   0.00494   0.00331  -0.00015
           A4           0.10754   0.00291  -0.01117   0.10754   0.00291
           A5           0.00405   0.00058   0.00066   0.01823   0.00465
           A6          -0.00736  -0.00044  -0.00001   0.01921  -0.00819
           A7           0.00331  -0.00015  -0.00065  -0.03744   0.00354
           D1          -0.00000   0.00000   0.00000  -0.00000  -0.00000
           D2          -0.00000  -0.00000  -0.00000   0.00000  -0.00000
           D3          -0.00000  -0.00000  -0.00000   0.00000  -0.00000
           D4           0.00000   0.00000   0.00000  -0.00000  -0.00000
           D5          -0.00000   0.00000   0.00000   0.00000   0.00000
           D6          -0.00000   0.00000   0.00000   0.00000   0.00000
                          R6        A1        A2        A3        A4
           R6           0.34185
           A1           0.00066   0.10068
           A2          -0.00001  -0.06577   0.10274
           A3          -0.00065  -0.03490  -0.03697   0.07187
           A4          -0.01117   0.00159   0.01148  -0.01307   0.43846
           A5          -0.00738   0.00241  -0.00130  -0.00112   0.00159
           A6           0.00244  -0.00130   0.00179  -0.00049   0.01148
           A7           0.00494  -0.00112  -0.00049   0.00161  -0.01307
           D1          -0.00000   0.00000  -0.00000   0.00000  -0.00000
           D2          -0.00000  -0.00000   0.00000  -0.00000   0.00000
           D3          -0.00000   0.00000  -0.00000   0.00000  -0.00000
           D4          -0.00000  -0.00000   0.00000  -0.00000   0.00000
           D5           0.00000  -0.00000   0.00000  -0.00000   0.00000
           D6           0.00000   0.00000  -0.00000   0.00000   0.00000
                          A5        A6        A7        D1        D2
           A5           0.10068
           A6          -0.06577   0.10274
           A7          -0.03490  -0.03697   0.07187
           D1           0.00000  -0.00000   0.00000   0.01581
           D2           0.00000   0.00000  -0.00000   0.01312   0.01388
           D3          -0.00000   0.00000  -0.00000  -0.00280   0.00078
           D4          -0.00000   0.00000  -0.00000  -0.01014  -0.00720
           D5           0.00000  -0.00000   0.00000  -0.00720  -0.00518
           D6           0.00000   0.00000  -0.00000   0.00306   0.00210
                          D3        D4        D5        D6
           D3           0.00373
           D4           0.00306   0.01581
           D5           0.00210   0.01312   0.01388
           D6          -0.00100  -0.00280   0.00078   0.00373
 ITU=  0
     Eigenvalues ---    0.00326   0.00589   0.01385   0.04384   0.09569
     Eigenvalues ---    0.10582   0.16299   0.16912   0.32325   0.33296
     Eigenvalues ---    0.34234   0.34362   0.35451   0.38816   0.66308
 Angle between quadratic step and forces=  13.12 degrees.
 Linear search not attempted -- option 19 set.
 Iteration  1 RMS(Cart)=  0.10488608 RMS(Int)=  0.00535967
 Iteration  2 RMS(Cart)=  0.00945828 RMS(Int)=  0.00000683
 Iteration  3 RMS(Cart)=  0.00000836 RMS(Int)=  0.00000006
 Iteration  4 RMS(Cart)=  0.00000000 RMS(Int)=  0.00000006
 Variable       Old X    -DE/DX   Delta X   Delta X   Delta X     New X
                                 (Linear)    (Quad)   (Total)
    R1        2.50092  -0.01586   0.00000  -0.06381  -0.06381   2.43711
    R2        2.06647  -0.01409   0.00000  -0.04268  -0.04268   2.02379
    R3        2.06560  -0.01161   0.00000  -0.02666  -0.02666   2.03894
    R4        2.50093  -0.01586   0.00000  -0.06383  -0.06383   2.43711
    R5        2.06646  -0.01409   0.00000  -0.04267  -0.04267   2.02379
    R6        2.06559  -0.01160   0.00000  -0.02665  -0.02665   2.03894
    A1        2.01424   0.00043   0.00000   0.00423   0.00423   2.01847
    A2        2.10248  -0.00289   0.00000  -0.03214  -0.03214   2.07034
    A3        2.16646   0.00245   0.00000   0.02791   0.02791   2.19437
    A4        2.02412   0.07129   0.00000   0.19642   0.19642   2.22054
    A5        2.01423   0.00043   0.00000   0.00424   0.00424   2.01847
    A6        2.10247  -0.00289   0.00000  -0.03213  -0.03213   2.07034
    A7        2.16648   0.00245   0.00000   0.02789   0.02789   2.19437
    D1       -3.14159  -0.00000   0.00000  -0.00000  -0.00000   3.14159
    D2        0.00001  -0.00000   0.00000  -0.00001  -0.00001  -0.00000
    D3       -3.14159  -0.00000   0.00000  -0.00000  -0.00000   3.14159
    D4       -3.14159   0.00000   0.00000  -0.00001  -0.00001   3.14159
    D5       -0.00000   0.00000   0.00000   0.00000   0.00000  -0.00000
    D6        3.14159   0.00000   0.00000   0.00001   0.00001  -3.14159
         Item               Value     Threshold  Converged?
 Maximum Force            0.071290     0.000002     NO 
 RMS     Force            0.018181     0.000001     NO 
 Maximum Displacement     0.238504     0.000006     NO 
 RMS     Displacement     0.101207     0.000004     NO 
 Predicted change in Energy=-9.086910D-03
 GradGradGradGradGradGradGradGradGradGradGradGradGradGradGradGradGradGrad

                          Input orientation:                          
 ---------------------------------------------------------------------
 Center     Atomic      Atomic             Coordinates (Angstroms)
 Number     Number       Type             X           Y           Z
 ---------------------------------------------------------------------
      1          6           0       -4.875739    0.317270    0.020129
      2          8           0       -3.981733    1.096043    0.527569
      3          1           0       -5.697223    0.073929    0.662681
      4          1           0       -4.743379   -0.030735   -0.992553
      5          6           0       -2.908907    1.528257   -0.042922
      6          1           0       -2.292968    2.169950    0.553547
      7          1           0       -2.704892    1.224366   -1.057901
 ---------------------------------------------------------------------
                    Distance matrix (angstroms):
                    1          2          3          4          5
     1  C    0.000000
     2  O    1.289663   0.000000
     3  H    1.070945   2.001470   0.000000
     4  H    1.078959   2.039732   1.913262   0.000000
     5  C    2.310605   1.289661   3.222989   2.587962   0.000000
     6  H    3.222990   2.001469   3.999271   3.638400   1.070946
     7  H    2.587962   2.039731   3.638400   2.394781   1.078959
                    6          7
     6  H    0.000000
     7  H    1.913262   0.000000
 Stoichiometry    C2H4O
 Framework group  C1[X(C2H4O)]
 Deg. of freedom    15
 Full point group                 C1      NOp   1
 Largest Abelian subgroup         C1      NOp   1
 Largest concise Abelian subgroup C1      NOp   1
                         Standard orientation:                         
 ---------------------------------------------------------------------
 Center     Atomic      Atomic             Coordinates (Angstroms)
 Number     Number       Type             X           Y           Z
 ---------------------------------------------------------------------
      1          6           0       -1.155303   -0.156106   -0.000000
      2          8           0        0.000001    0.417046    0.000000
      3          1           0       -1.999635    0.502700    0.000002
      4          1           0       -1.197391   -1.234244   -0.000002
      5          6           0        1.155302   -0.156107    0.000001
      6          1           0        1.999636    0.502699   -0.000004
      7          1           0        1.197390   -1.234245    0.000001
 ---------------------------------------------------------------------
 Rotational constants (GHZ):          73.2537387          11.7576575          10.1314930
 Standard basis: CC-pVTZ (5D, 7F)
 There are   165 symmetry adapted cartesian basis functions of A   symmetry.
 There are   146 symmetry adapted basis functions of A   symmetry.
   146 basis functions,   224 primitive gaussians,   165 cartesian basis functions
    12 alpha electrons       12 beta electrons
       nuclear repulsion energy        73.4531720925 Hartrees.
 NAtoms=    7 NActive=    7 NUniq=    7 SFac= 1.00D+00 NAtFMM=   60 NAOKFM=F Big=F
 Integral buffers will be    131072 words long.
 Raffenetti 2 integral format.
 Two-electron integral symmetry is turned on.
 One-electron integrals computed using PRISM.
 NBasis=   146 RedAO= T EigKep=  1.36D-03  NBF=   146
 NBsUse=   146 1.00D-06 EigRej= -1.00D+00 NBFU=   146
 Initial guess from the checkpoint file:  "/scratch/dinius.ab/QMscratch/Gau-48800.chk"
 B after Tr=    -0.000000   -0.000000   -0.000000
         Rot=    1.000000   -0.000000   -0.000000    0.000001 Ang=  -0.00 deg.
 ExpMin= 1.03D-01 ExpMax= 1.53D+04 ExpMxC= 5.22D+02 IAcc=2 IRadAn=         4 AccDes= 0.00D+00
 Harris functional with IExCor= 1009 and IRadAn=       4 diagonalized for initial guess.
 HarFok:  IExCor= 1009 AccDes= 0.00D+00 IRadAn=         4 IDoV= 1 UseB2=F ITyADJ=14
 ICtDFT=  3500011 ScaDFX=  1.000000  1.000000  1.000000  1.000000
 FoFCou: FMM=F IPFlag=           0 FMFlag=      100000 FMFlg1=           0
         NFxFlg=           0 DoJE=T BraDBF=F KetDBF=T FulRan=T
         wScrn=  0.000000 ICntrl=       500 IOpCl=  0 I1Cent=   200000004 NGrid=           0
         NMat0=    1 NMatS0=      1 NMatT0=    0 NMatD0=    1 NMtDS0=    0 NMtDT0=    0
 Petite list used in FoFCou.
 Keep R1 ints in memory in canonical form, NReq=77430765.
 Requested convergence on RMS density matrix=1.00D-08 within 900 cycles.
 Requested convergence on MAX density matrix=1.00D-06.
 Requested convergence on             energy=1.00D-06.
 No special actions if energy rises.
 Integral accuracy reduced to 1.0D-05 until final iterations.
 Initial convergence to 1.0D-05 achieved.  Increase integral accuracy.
 SCF Done:  E(RM062X) =  -153.697119138     A.U. after   12 cycles
            NFock= 12  Conv=0.22D-08     -V/T= 2.0053
 Calling FoFJK, ICntrl=      2127 FMM=F ISym2X=0 I1Cent= 0 IOpClX= 0 NMat=1 NMatS=1 NMatT=0.
 ***** Axes restored to original set *****
 -------------------------------------------------------------------
 Center     Atomic                   Forces (Hartrees/Bohr)
 Number     Number              X              Y              Z
 -------------------------------------------------------------------
      1        6          -0.005184027   -0.002671095    0.001388831
      2        8           0.000552389   -0.001074260   -0.003338548
      3        1          -0.001120431   -0.000480277    0.000527927
      4        1          -0.001047147   -0.000667736   -0.000020286
      5        6           0.004778047    0.003462300    0.001068577
      6        1           0.000956151    0.000798099    0.000461177
      7        1           0.001065018    0.000632969   -0.000087678
 -------------------------------------------------------------------
 Cartesian Forces:  Max     0.005184027 RMS     0.002082992

 GradGradGradGradGradGradGradGradGradGradGradGradGradGradGradGradGradGrad
 Berny optimization.
 Using GDIIS optimizer.
 FormGI is forming the generalized inverse of G from B-inverse, IUseBI=4.
 Internal  Forces:  Max     0.014722241 RMS     0.004075110
 Search for a local minimum.
 Step number   2 out of a maximum of  100
 All quantities printed in internal units (Hartrees-Bohrs-Radians)
 Swapping is turned off.
 Update second derivatives using D2CorX and points    1    2
 DE= -9.70D-03 DEPred=-9.09D-03 R= 1.07D+00
 TightC=F SS=  1.41D+00  RLast= 2.35D-01 DXNew= 5.0454D-01 7.0641D-01
 Trust test= 1.07D+00 RLast= 2.35D-01 DXMaxT set to 5.05D-01
 The second derivative matrix:
                          R1        R2        R3        R4        R5
           R1           0.47868
           R2           0.02093   0.34628
           R3           0.01518   0.00175   0.34278
           R4           0.10924   0.00325   0.00132   0.47867
           R5           0.00325   0.00377   0.00192   0.02093   0.34629
           R6           0.00132   0.00192   0.00208   0.01518   0.00175
           A1           0.01748   0.00421  -0.00769   0.00330   0.00015
           A2           0.02265  -0.00636   0.00370  -0.00391   0.00139
           A3          -0.04013   0.00214   0.00400   0.00062  -0.00154
           A4           0.09210   0.00516  -0.00603   0.09210   0.00516
           A5           0.00330   0.00015   0.00035   0.01748   0.00421
           A6          -0.00392   0.00139   0.00125   0.02265  -0.00636
           A7           0.00062  -0.00154  -0.00160  -0.04013   0.00214
           D1           0.00000   0.00000   0.00000   0.00000   0.00000
           D2           0.00000   0.00000   0.00000   0.00000   0.00000
           D3          -0.00000  -0.00000  -0.00000   0.00000   0.00000
           D4           0.00000   0.00000   0.00000   0.00000   0.00000
           D5           0.00000   0.00000   0.00000   0.00000   0.00000
           D6          -0.00000  -0.00000  -0.00000   0.00000   0.00000
                          R6        A1        A2        A3        A4
           R6           0.34279
           A1           0.00035   0.10071
           A2           0.00125  -0.06592   0.10344
           A3          -0.00160  -0.03479  -0.03751   0.07230
           A4          -0.00603   0.00272   0.00782  -0.01055   0.35389
           A5          -0.00769   0.00245  -0.00145  -0.00100   0.00272
           A6           0.00370  -0.00145   0.00248  -0.00103   0.00782
           A7           0.00400  -0.00100  -0.00103   0.00203  -0.01055
           D1           0.00000   0.00000  -0.00000   0.00000  -0.00000
           D2           0.00000  -0.00000   0.00000  -0.00000  -0.00000
           D3           0.00000   0.00000  -0.00000   0.00000  -0.00000
           D4           0.00000  -0.00000   0.00000  -0.00000  -0.00000
           D5           0.00000  -0.00000   0.00000  -0.00000  -0.00000
           D6           0.00000   0.00000  -0.00000   0.00000   0.00000
                          A5        A6        A7        D1        D2
           A5           0.10071
           A6          -0.06592   0.10344
           A7          -0.03479  -0.03751   0.07230
           D1           0.00000   0.00000  -0.00000   0.01581
           D2           0.00000   0.00000  -0.00000   0.01312   0.01388
           D3          -0.00000   0.00000  -0.00000  -0.00280   0.00078
           D4          -0.00000   0.00000  -0.00000  -0.01014  -0.00720
           D5           0.00000  -0.00000   0.00000  -0.00720  -0.00518
           D6           0.00000   0.00000  -0.00000   0.00306   0.00210
                          D3        D4        D5        D6
           D3           0.00373
           D4           0.00306   0.01581
           D5           0.00210   0.01312   0.01388
           D6          -0.00100  -0.00280   0.00078   0.00373
 ITU=  1  0
     Eigenvalues ---    0.00326   0.00588   0.01385   0.04384   0.09569
     Eigenvalues ---    0.10629   0.16299   0.17103   0.29222   0.33296
     Eigenvalues ---    0.34234   0.34535   0.35182   0.38816   0.65341
 DIIS coeff's:      1.10792     -0.10792
 Cosine:  1.000 >  0.970
 Length:  1.000
 GDIIS step was calculated using  2 of the last  2 vectors.
 Iteration  1 RMS(Cart)=  0.03041092 RMS(Int)=  0.00031005
 Iteration  2 RMS(Cart)=  0.00036473 RMS(Int)=  0.00000002
 Iteration  3 RMS(Cart)=  0.00000005 RMS(Int)=  0.00000002
 Variable       Old X    -DE/DX   Delta X   Delta X   Delta X     New X
                                 (Linear)    (Quad)   (Total)
    R1        2.43711   0.00666  -0.00689   0.01163   0.00474   2.44185
    R2        2.02379   0.00129  -0.00461   0.00751   0.00291   2.02670
    R3        2.03894   0.00011  -0.00288   0.00347   0.00059   2.03953
    R4        2.43711   0.00666  -0.00689   0.01164   0.00475   2.44185
    R5        2.02379   0.00128  -0.00460   0.00751   0.00291   2.02670
    R6        2.03894   0.00011  -0.00288   0.00347   0.00059   2.03953
    A1        2.01847  -0.00039   0.00046  -0.00321  -0.00275   2.01572
    A2        2.07034   0.00146  -0.00347   0.01037   0.00690   2.07725
    A3        2.19437  -0.00107   0.00301  -0.00717  -0.00416   2.19022
    A4        2.22054   0.01472   0.02120   0.01736   0.03856   2.25909
    A5        2.01847  -0.00039   0.00046  -0.00321  -0.00275   2.01572
    A6        2.07034   0.00146  -0.00347   0.01037   0.00690   2.07725
    A7        2.19437  -0.00107   0.00301  -0.00716  -0.00415   2.19022
    D1        3.14159   0.00000  -0.00000   0.00001   0.00001  -3.14159
    D2       -0.00000   0.00000  -0.00000   0.00001   0.00001   0.00000
    D3        3.14159   0.00000  -0.00000  -0.00000  -0.00000   3.14159
    D4        3.14159   0.00000  -0.00000   0.00001   0.00001  -3.14158
    D5       -0.00000   0.00000   0.00000   0.00000   0.00000   0.00000
    D6       -3.14159  -0.00000   0.00000  -0.00001  -0.00001   3.14159
         Item               Value     Threshold  Converged?
 Maximum Force            0.014722     0.000002     NO 
 RMS     Force            0.004075     0.000001     NO 
 Maximum Displacement     0.066978     0.000006     NO 
 RMS     Displacement     0.030393     0.000004     NO 
 Predicted change in Energy=-3.347574D-04
 GradGradGradGradGradGradGradGradGradGradGradGradGradGradGradGradGradGrad

                          Input orientation:                          
 ---------------------------------------------------------------------
 Center     Atomic      Atomic             Coordinates (Angstroms)
 Number     Number       Type             X           Y           Z
 ---------------------------------------------------------------------
      1          6           0       -4.886450    0.309544    0.017824
      2          8           0       -3.977968    1.088746    0.504871
      3          1           0       -5.699455    0.079164    0.678257
      4          1           0       -4.778299   -0.052911   -0.992998
      5          6           0       -2.897311    1.534272   -0.045945
      6          1           0       -2.295907    2.174737    0.569149
      7          1           0       -2.669449    1.245528   -1.060607
 ---------------------------------------------------------------------
                    Distance matrix (angstroms):
                    1          2          3          4          5
     1  C    0.000000
     2  O    1.292172   0.000000
     3  H    1.072485   2.003206   0.000000
     4  H    1.079274   2.046343   1.912868   0.000000
     5  C    2.336814   1.292173   3.239416   2.637077   0.000000
     6  H    3.239416   2.003207   3.998433   3.683068   1.072485
     7  H    2.637077   2.046344   3.683068   2.477452   1.079274
                    6          7
     6  H    0.000000
     7  H    1.912868   0.000000
 Stoichiometry    C2H4O
 Framework group  C1[X(C2H4O)]
 Deg. of freedom    15
 Full point group                 C1      NOp   1
 Largest Abelian subgroup         C1      NOp   1
 Largest concise Abelian subgroup C1      NOp   1
                         Standard orientation:                         
 ---------------------------------------------------------------------
 Center     Atomic      Atomic             Coordinates (Angstroms)
 Number     Number       Type             X           Y           Z
 ---------------------------------------------------------------------
      1          6           0       -1.168407   -0.150719    0.000001
      2          8           0       -0.000000    0.401129    0.000000
      3          1           0       -1.999216    0.527498   -0.000005
      4          1           0       -1.238726   -1.227699    0.000004
      5          6           0        1.168407   -0.150719   -0.000001
      6          1           0        1.999216    0.527499    0.000006
      7          1           0        1.238726   -1.227699   -0.000003
 ---------------------------------------------------------------------
 Rotational constants (GHZ):          75.7228743          11.5085446           9.9902086
 Standard basis: CC-pVTZ (5D, 7F)
 There are   165 symmetry adapted cartesian basis functions of A   symmetry.
 There are   146 symmetry adapted basis functions of A   symmetry.
   146 basis functions,   224 primitive gaussians,   165 cartesian basis functions
    12 alpha electrons       12 beta electrons
       nuclear repulsion energy        73.1904062335 Hartrees.
 NAtoms=    7 NActive=    7 NUniq=    7 SFac= 1.00D+00 NAtFMM=   60 NAOKFM=F Big=F
 Integral buffers will be    131072 words long.
 Raffenetti 2 integral format.
 Two-electron integral symmetry is turned on.
 One-electron integrals computed using PRISM.
 NBasis=   146 RedAO= T EigKep=  1.40D-03  NBF=   146
 NBsUse=   146 1.00D-06 EigRej= -1.00D+00 NBFU=   146
 Initial guess from the checkpoint file:  "/scratch/dinius.ab/QMscratch/Gau-48800.chk"
 B after Tr=     0.000000   -0.000000    0.000000
         Rot=    1.000000   -0.000000    0.000000   -0.000000 Ang=  -0.00 deg.
 ExpMin= 1.03D-01 ExpMax= 1.53D+04 ExpMxC= 5.22D+02 IAcc=2 IRadAn=         4 AccDes= 0.00D+00
 Harris functional with IExCor= 1009 and IRadAn=       4 diagonalized for initial guess.
 HarFok:  IExCor= 1009 AccDes= 0.00D+00 IRadAn=         4 IDoV= 1 UseB2=F ITyADJ=14
 ICtDFT=  3500011 ScaDFX=  1.000000  1.000000  1.000000  1.000000
 FoFCou: FMM=F IPFlag=           0 FMFlag=      100000 FMFlg1=           0
         NFxFlg=           0 DoJE=T BraDBF=F KetDBF=T FulRan=T
         wScrn=  0.000000 ICntrl=       500 IOpCl=  0 I1Cent=   200000004 NGrid=           0
         NMat0=    1 NMatS0=      1 NMatT0=    0 NMatD0=    1 NMtDS0=    0 NMtDT0=    0
 Petite list used in FoFCou.
 Keep R1 ints in memory in canonical form, NReq=77430765.
 Requested convergence on RMS density matrix=1.00D-08 within 900 cycles.
 Requested convergence on MAX density matrix=1.00D-06.
 Requested convergence on             energy=1.00D-06.
 No special actions if energy rises.
 Integral accuracy reduced to 1.0D-05 until final iterations.
 Initial convergence to 1.0D-05 achieved.  Increase integral accuracy.
 SCF Done:  E(RM062X) =  -153.697549855     A.U. after    8 cycles
            NFock=  8  Conv=0.95D-08     -V/T= 2.0055
 Calling FoFJK, ICntrl=      2127 FMM=F ISym2X=0 I1Cent= 0 IOpClX= 0 NMat=1 NMatS=1 NMatT=0.
 ***** Axes restored to original set *****
 -------------------------------------------------------------------
 Center     Atomic                   Forces (Hartrees/Bohr)
 Number     Number              X              Y              Z
 -------------------------------------------------------------------
      1        6          -0.000885258   -0.000224237    0.000781452
      2        8           0.000308665   -0.000595780   -0.001855036
      3        1          -0.000186440   -0.000081435    0.000084593
      4        1          -0.000415112   -0.000216865    0.000103956
      5        6           0.000633264    0.000710620    0.000733114
      6        1           0.000160103    0.000132173    0.000073402
      7        1           0.000384779    0.000275524    0.000078519
 -------------------------------------------------------------------
 Cartesian Forces:  Max     0.001855036 RMS     0.000591077

 GradGradGradGradGradGradGradGradGradGradGradGradGradGradGradGradGradGrad
 Berny optimization.
 Using GDIIS optimizer.
 FormGI is forming the generalized inverse of G from B-inverse, IUseBI=4.
 Internal  Forces:  Max     0.004650218 RMS     0.001142635
 Search for a local minimum.
 Step number   3 out of a maximum of  100
 All quantities printed in internal units (Hartrees-Bohrs-Radians)
 Swapping is turned off.
 Update second derivatives using D2CorX and points    1    2    3
 DE= -4.31D-04 DEPred=-3.35D-04 R= 1.29D+00
 TightC=F SS=  1.41D+00  RLast= 4.12D-02 DXNew= 8.4853D-01 1.2348D-01
 Trust test= 1.29D+00 RLast= 4.12D-02 DXMaxT set to 5.05D-01
 The second derivative matrix:
                          R1        R2        R3        R4        R5
           R1           0.48051
           R2           0.02149   0.34672
           R3           0.01645   0.00224   0.34303
           R4           0.11109   0.00382   0.00259   0.48053
           R5           0.00382   0.00421   0.00241   0.02150   0.34673
           R6           0.00258   0.00240   0.00232   0.01645   0.00224
           A1           0.01919   0.00443  -0.00780   0.00501   0.00037
           A2           0.01915  -0.00677   0.00406  -0.00742   0.00098
           A3          -0.03834   0.00233   0.00374   0.00241  -0.00136
           A4           0.06761  -0.00032  -0.00491   0.06763  -0.00031
           A5           0.00501   0.00037   0.00025   0.01920   0.00443
           A6          -0.00742   0.00098   0.00161   0.01915  -0.00677
           A7           0.00241  -0.00136  -0.00185  -0.03834   0.00233
           D1           0.00000   0.00000   0.00000   0.00000   0.00000
           D2           0.00000   0.00000   0.00000   0.00000   0.00000
           D3          -0.00000  -0.00000  -0.00000   0.00000   0.00000
           D4           0.00000   0.00000   0.00000   0.00000   0.00000
           D5           0.00000   0.00000   0.00000   0.00000   0.00000
           D6          -0.00000  -0.00000  -0.00000  -0.00000  -0.00000
                          R6        A1        A2        A3        A4
           R6           0.34304
           A1           0.00025   0.10056
           A2           0.00161  -0.06545   0.10211
           A3          -0.00185  -0.03511  -0.03666   0.07177
           A4          -0.00490   0.00816  -0.00618  -0.00198   0.24773
           A5          -0.00780   0.00230  -0.00098  -0.00132   0.00816
           A6           0.00406  -0.00098   0.00116  -0.00018  -0.00618
           A7           0.00375  -0.00132  -0.00018   0.00150  -0.00198
           D1          -0.00000  -0.00000   0.00000  -0.00000   0.00000
           D2           0.00000  -0.00000   0.00000  -0.00000   0.00000
           D3           0.00000   0.00000  -0.00000   0.00000  -0.00000
           D4          -0.00000  -0.00000   0.00000  -0.00000   0.00000
           D5           0.00000  -0.00000   0.00000  -0.00000   0.00000
           D6           0.00000   0.00000  -0.00000   0.00000  -0.00000
                          A5        A6        A7        D1        D2
           A5           0.10056
           A6          -0.06546   0.10211
           A7          -0.03511  -0.03666   0.07177
           D1          -0.00000   0.00000  -0.00000   0.01581
           D2          -0.00000   0.00000  -0.00000   0.01312   0.01388
           D3          -0.00000   0.00000  -0.00000  -0.00280   0.00078
           D4          -0.00000   0.00000  -0.00000  -0.01014  -0.00720
           D5           0.00000   0.00000  -0.00000  -0.00720  -0.00518
           D6           0.00000   0.00000  -0.00000   0.00306   0.00210
                          D3        D4        D5        D6
           D3           0.00373
           D4           0.00306   0.01581
           D5           0.00210   0.01312   0.01388
           D6          -0.00100  -0.00280   0.00078   0.00373
 ITU=  1  1  0
     Eigenvalues ---    0.00326   0.00588   0.01385   0.04384   0.09569
     Eigenvalues ---    0.10555   0.16299   0.16609   0.22431   0.33296
     Eigenvalues ---    0.34234   0.34396   0.35151   0.38816   0.62362
 DIIS coeff's:      1.35237     -0.33090     -0.02147
 Cosine:  1.000 >  0.840
 Length:  0.927
 GDIIS step was calculated using  3 of the last  3 vectors.
 Iteration  1 RMS(Cart)=  0.01413634 RMS(Int)=  0.00007852
 Iteration  2 RMS(Cart)=  0.00009655 RMS(Int)=  0.00000002
 Iteration  3 RMS(Cart)=  0.00000000 RMS(Int)=  0.00000002
 Variable       Old X    -DE/DX   Delta X   Delta X   Delta X     New X
                                 (Linear)    (Quad)   (Total)
    R1        2.44185   0.00099   0.00030  -0.00110  -0.00080   2.44105
    R2        2.02670   0.00021   0.00011   0.00060   0.00071   2.02741
    R3        2.03953  -0.00007  -0.00036   0.00037   0.00001   2.03954
    R4        2.44185   0.00099   0.00030  -0.00111  -0.00081   2.44105
    R5        2.02670   0.00021   0.00011   0.00060   0.00071   2.02741
    R6        2.03953  -0.00007  -0.00036   0.00037   0.00001   2.03954
    A1        2.01572  -0.00024  -0.00088  -0.00067  -0.00155   2.01418
    A2        2.07725   0.00060   0.00174   0.00280   0.00454   2.08179
    A3        2.19022  -0.00037  -0.00086  -0.00213  -0.00300   2.18722
    A4        2.25909   0.00465   0.01780   0.00031   0.01812   2.27721
    A5        2.01572  -0.00024  -0.00088  -0.00067  -0.00155   2.01417
    A6        2.07725   0.00060   0.00174   0.00280   0.00454   2.08179
    A7        2.19022  -0.00037  -0.00086  -0.00213  -0.00300   2.18722
    D1       -3.14159  -0.00000   0.00000  -0.00004  -0.00003   3.14157
    D2        0.00000  -0.00000   0.00000  -0.00001  -0.00001  -0.00001
    D3        3.14159   0.00000  -0.00000   0.00002   0.00002  -3.14158
    D4       -3.14158  -0.00000   0.00000  -0.00004  -0.00003   3.14157
    D5        0.00000  -0.00000   0.00000  -0.00001  -0.00001  -0.00001
    D6        3.14159   0.00000  -0.00000   0.00003   0.00003  -3.14157
         Item               Value     Threshold  Converged?
 Maximum Force            0.004650     0.000002     NO 
 RMS     Force            0.001143     0.000001     NO 
 Maximum Displacement     0.030992     0.000006     NO 
 RMS     Displacement     0.014109     0.000004     NO 
 Predicted change in Energy=-4.902040D-05
 GradGradGradGradGradGradGradGradGradGradGradGradGradGradGradGradGradGrad

                          Input orientation:                          
 ---------------------------------------------------------------------
 Center     Atomic      Atomic             Coordinates (Angstroms)
 Number     Number       Type             X           Y           Z
 ---------------------------------------------------------------------
      1          6           0       -4.890131    0.306755    0.016690
      2          8           0       -3.976077    1.085082    0.493475
      3          1           0       -5.698612    0.082723    0.685416
      4          1           0       -4.794612   -0.063046   -0.992747
      5          6           0       -2.893214    1.536253   -0.047322
      6          1           0       -2.299146    2.175820    0.576427
      7          1           0       -2.653048    1.255493   -1.061390
 ---------------------------------------------------------------------
                    Distance matrix (angstroms):
                    1          2          3          4          5
     1  C    0.000000
     2  O    1.291748   0.000000
     3  H    1.072859   2.002172   0.000000
     4  H    1.079277   2.048671   1.911726   0.000000
     5  C    2.345942   1.291747   3.243442   2.658364   0.000000
     6  H    3.243442   2.002171   3.993658   3.701646   1.072859
     7  H    2.658364   2.048670   3.701646   2.515860   1.079277
                    6          7
     6  H    0.000000
     7  H    1.911725   0.000000
 Stoichiometry    C2H4O
 Framework group  C1[X(C2H4O)]
 Deg. of freedom    15
 Full point group                 C1      NOp   1
 Largest Abelian subgroup         C1      NOp   1
 Largest concise Abelian subgroup C1      NOp   1
                         Standard orientation:                         
 ---------------------------------------------------------------------
 Center     Atomic      Atomic             Coordinates (Angstroms)
 Number     Number       Type             X           Y           Z
 ---------------------------------------------------------------------
      1          6           0       -1.172971   -0.147963   -0.000003
      2          8           0        0.000001    0.393101    0.000000
      3          1           0       -1.996829    0.539267    0.000018
      4          1           0       -1.257930   -1.223891   -0.000011
      5          6           0        1.172971   -0.147963    0.000003
      6          1           0        1.996829    0.539266   -0.000019
      7          1           0        1.257930   -1.223891    0.000011
 ---------------------------------------------------------------------
 Rotational constants (GHZ):          77.0309032          11.4217035           9.9468424
 Standard basis: CC-pVTZ (5D, 7F)
 There are   165 symmetry adapted cartesian basis functions of A   symmetry.
 There are   146 symmetry adapted basis functions of A   symmetry.
   146 basis functions,   224 primitive gaussians,   165 cartesian basis functions
    12 alpha electrons       12 beta electrons
       nuclear repulsion energy        73.1411067181 Hartrees.
 NAtoms=    7 NActive=    7 NUniq=    7 SFac= 1.00D+00 NAtFMM=   60 NAOKFM=F Big=F
 Integral buffers will be    131072 words long.
 Raffenetti 2 integral format.
 Two-electron integral symmetry is turned on.
 One-electron integrals computed using PRISM.
 NBasis=   146 RedAO= T EigKep=  1.42D-03  NBF=   146
 NBsUse=   146 1.00D-06 EigRej= -1.00D+00 NBFU=   146
 Initial guess from the checkpoint file:  "/scratch/dinius.ab/QMscratch/Gau-48800.chk"
 B after Tr=    -0.000000    0.000000   -0.000000
         Rot=    1.000000    0.000000   -0.000000    0.000000 Ang=   0.00 deg.
 ExpMin= 1.03D-01 ExpMax= 1.53D+04 ExpMxC= 5.22D+02 IAcc=2 IRadAn=         4 AccDes= 0.00D+00
 Harris functional with IExCor= 1009 and IRadAn=       4 diagonalized for initial guess.
 HarFok:  IExCor= 1009 AccDes= 0.00D+00 IRadAn=         4 IDoV= 1 UseB2=F ITyADJ=14
 ICtDFT=  3500011 ScaDFX=  1.000000  1.000000  1.000000  1.000000
 FoFCou: FMM=F IPFlag=           0 FMFlag=      100000 FMFlg1=           0
         NFxFlg=           0 DoJE=T BraDBF=F KetDBF=T FulRan=T
         wScrn=  0.000000 ICntrl=       500 IOpCl=  0 I1Cent=   200000004 NGrid=           0
         NMat0=    1 NMatS0=      1 NMatT0=    0 NMatD0=    1 NMtDS0=    0 NMtDT0=    0
 Petite list used in FoFCou.
 Keep R1 ints in memory in canonical form, NReq=77430765.
 Requested convergence on RMS density matrix=1.00D-08 within 900 cycles.
 Requested convergence on MAX density matrix=1.00D-06.
 Requested convergence on             energy=1.00D-06.
 No special actions if energy rises.
 Integral accuracy reduced to 1.0D-05 until final iterations.
 Initial convergence to 1.0D-05 achieved.  Increase integral accuracy.
 SCF Done:  E(RM062X) =  -153.697602237     A.U. after    9 cycles
            NFock=  9  Conv=0.16D-08     -V/T= 2.0055
 Calling FoFJK, ICntrl=      2127 FMM=F ISym2X=0 I1Cent= 0 IOpClX= 0 NMat=1 NMatS=1 NMatT=0.
 ***** Axes restored to original set *****
 -------------------------------------------------------------------
 Center     Atomic                   Forces (Hartrees/Bohr)
 Number     Number              X              Y              Z
 -------------------------------------------------------------------
      1        6          -0.000329589   -0.000164207    0.000102446
      2        8           0.000037386   -0.000074915   -0.000231109
      3        1          -0.000016816   -0.000014214   -0.000009613
      4        1          -0.000044368   -0.000013389    0.000034955
      5        6           0.000299759    0.000223908    0.000081671
      6        1           0.000020348    0.000007866   -0.000010453
      7        1           0.000033280    0.000034950    0.000032104
 -------------------------------------------------------------------
 Cartesian Forces:  Max     0.000329589 RMS     0.000131124

 GradGradGradGradGradGradGradGradGradGradGradGradGradGradGradGradGradGrad
 Berny optimization.
 Using GDIIS optimizer.
 FormGI is forming the generalized inverse of G from B-inverse, IUseBI=4.
 Internal  Forces:  Max     0.000773529 RMS     0.000211405
 Search for a local minimum.
 Step number   4 out of a maximum of  100
 All quantities printed in internal units (Hartrees-Bohrs-Radians)
 Swapping is turned off.
 Update second derivatives using D2CorX and points    1    2    3    4
 DE= -5.24D-05 DEPred=-4.90D-05 R= 1.07D+00
 TightC=F SS=  1.41D+00  RLast= 1.99D-02 DXNew= 8.4853D-01 5.9583D-02
 Trust test= 1.07D+00 RLast= 1.99D-02 DXMaxT set to 5.05D-01
 The second derivative matrix:
                          R1        R2        R3        R4        R5
           R1           0.47086
           R2           0.01722   0.34415
           R3           0.01429   0.00057   0.34189
           R4           0.10143  -0.00045   0.00043   0.47087
           R5          -0.00046   0.00164   0.00074   0.01722   0.34415
           R6           0.00042   0.00074   0.00118   0.01429   0.00057
           A1           0.02068   0.00502  -0.00742   0.00650   0.00095
           A2           0.01480  -0.00853   0.00299  -0.01177  -0.00078
           A3          -0.03548   0.00351   0.00443   0.00528  -0.00017
           A4           0.05714   0.00174  -0.00234   0.05710   0.00173
           A5           0.00650   0.00095   0.00063   0.02068   0.00502
           A6          -0.01177  -0.00078   0.00054   0.01479  -0.00853
           A7           0.00527  -0.00018  -0.00117  -0.03548   0.00351
           D1          -0.00000  -0.00000   0.00000  -0.00000  -0.00000
           D2          -0.00000  -0.00000   0.00000  -0.00000  -0.00000
           D3           0.00000   0.00000  -0.00000   0.00000   0.00000
           D4          -0.00000  -0.00000   0.00000  -0.00000  -0.00000
           D5          -0.00000  -0.00000   0.00000  -0.00000  -0.00000
           D6          -0.00000   0.00000  -0.00000   0.00000   0.00000
                          R6        A1        A2        A3        A4
           R6           0.34190
           A1           0.00063   0.10053
           A2           0.00054  -0.06521   0.10104
           A3          -0.00117  -0.03533  -0.03584   0.07117
           A4          -0.00234   0.00729  -0.00584  -0.00145   0.22263
           A5          -0.00742   0.00227  -0.00073  -0.00154   0.00728
           A6           0.00299  -0.00073   0.00009   0.00064  -0.00584
           A7           0.00443  -0.00154   0.00064   0.00090  -0.00145
           D1           0.00000   0.00000  -0.00000   0.00000  -0.00003
           D2           0.00000   0.00000  -0.00000   0.00000  -0.00003
           D3          -0.00000  -0.00000   0.00000  -0.00000   0.00000
           D4           0.00000   0.00000  -0.00000   0.00000  -0.00003
           D5           0.00000   0.00000  -0.00000   0.00000  -0.00003
           D6          -0.00000  -0.00000   0.00000  -0.00000   0.00000
                          A5        A6        A7        D1        D2
           A5           0.10054
           A6          -0.06521   0.10104
           A7          -0.03533  -0.03584   0.07116
           D1           0.00000  -0.00000   0.00000   0.01581
           D2           0.00000  -0.00000   0.00000   0.01312   0.01388
           D3          -0.00000   0.00000  -0.00000  -0.00280   0.00078
           D4           0.00000  -0.00000   0.00000  -0.01014  -0.00720
           D5           0.00000  -0.00000   0.00000  -0.00720  -0.00518
           D6          -0.00000   0.00000  -0.00000   0.00306   0.00210
                          D3        D4        D5        D6
           D3           0.00373
           D4           0.00306   0.01581
           D5           0.00210   0.01312   0.01388
           D6          -0.00100  -0.00280   0.00078   0.00373
 ITU=  1  1  1  0
     Eigenvalues ---    0.00326   0.00588   0.01385   0.04384   0.09569
     Eigenvalues ---    0.10477   0.16299   0.16415   0.20680   0.33296
     Eigenvalues ---    0.34234   0.34318   0.34531   0.38816   0.59556
 DIIS coeff's:      0.98923      0.07960     -0.06661     -0.00222
 Cosine:  1.000 >  0.710
 Length:  0.850
 GDIIS step was calculated using  4 of the last  4 vectors.
 Iteration  1 RMS(Cart)=  0.00211838 RMS(Int)=  0.00000161
 Iteration  2 RMS(Cart)=  0.00000210 RMS(Int)=  0.00000000
 Iteration  3 RMS(Cart)=  0.00000000 RMS(Int)=  0.00000000
 Variable       Old X    -DE/DX   Delta X   Delta X   Delta X     New X
                                 (Linear)    (Quad)   (Total)
    R1        2.44105   0.00034   0.00019   0.00002   0.00021   2.44126
    R2        2.02741   0.00001   0.00010  -0.00008   0.00002   2.02743
    R3        2.03954  -0.00003  -0.00002  -0.00005  -0.00007   2.03947
    R4        2.44105   0.00035   0.00019   0.00002   0.00022   2.44126
    R5        2.02741   0.00001   0.00010  -0.00008   0.00002   2.02743
    R6        2.03954  -0.00003  -0.00002  -0.00005  -0.00007   2.03947
    A1        2.01418  -0.00000  -0.00016   0.00003  -0.00013   2.01404
    A2        2.08179   0.00005   0.00035   0.00006   0.00041   2.08220
    A3        2.18722  -0.00005  -0.00019  -0.00009  -0.00028   2.18694
    A4        2.27721   0.00077   0.00290  -0.00003   0.00287   2.28008
    A5        2.01417  -0.00000  -0.00016   0.00003  -0.00013   2.01404
    A6        2.08179   0.00005   0.00035   0.00006   0.00041   2.08220
    A7        2.18722  -0.00005  -0.00019  -0.00009  -0.00028   2.18694
    D1        3.14157   0.00000   0.00000   0.00008   0.00008  -3.14154
    D2       -0.00001   0.00000   0.00000   0.00003   0.00003   0.00002
    D3       -3.14158  -0.00000  -0.00000  -0.00006  -0.00006   3.14155
    D4        3.14157   0.00000   0.00000   0.00008   0.00008  -3.14154
    D5       -0.00001   0.00000   0.00000   0.00003   0.00003   0.00002
    D6       -3.14157  -0.00000  -0.00000  -0.00006  -0.00006   3.14155
         Item               Value     Threshold  Converged?
 Maximum Force            0.000774     0.000002     NO 
 RMS     Force            0.000211     0.000001     NO 
 Maximum Displacement     0.004561     0.000006     NO 
 RMS     Displacement     0.002118     0.000004     NO 
 Predicted change in Energy=-1.404065D-06
 GradGradGradGradGradGradGradGradGradGradGradGradGradGradGradGradGradGrad

                          Input orientation:                          
 ---------------------------------------------------------------------
 Center     Atomic      Atomic             Coordinates (Angstroms)
 Number     Number       Type             X           Y           Z
 ---------------------------------------------------------------------
      1          6           0       -4.890838    0.306220    0.016540
      2          8           0       -3.975792    1.084529    0.491757
      3          1           0       -5.698643    0.083190    0.686433
      4          1           0       -4.797025   -0.064584   -0.992649
      5          6           0       -2.892447    1.536672   -0.047535
      6          1           0       -2.299459    2.176019    0.577484
      7          1           0       -2.650636    1.257032   -1.061481
 ---------------------------------------------------------------------
                    Distance matrix (angstroms):
                    1          2          3          4          5
     1  C    0.000000
     2  O    1.291861   0.000000
     3  H    1.072869   2.002197   0.000000
     4  H    1.079239   2.048986   1.911561   0.000000
     5  C    2.347698   1.291862   3.244388   2.661706   0.000000
     6  H    3.244388   2.002197   3.993276   3.704518   1.072869
     7  H    2.661706   2.048986   3.704518   2.521586   1.079239
                    6          7
     6  H    0.000000
     7  H    1.911562   0.000000
 Stoichiometry    C2H4O
 Framework group  C1[X(C2H4O)]
 Deg. of freedom    15
 Full point group                 C1      NOp   1
 Largest Abelian subgroup         C1      NOp   1
 Largest concise Abelian subgroup C1      NOp   1
                         Standard orientation:                         
 ---------------------------------------------------------------------
 Center     Atomic      Atomic             Coordinates (Angstroms)
 Number     Number       Type             X           Y           Z
 ---------------------------------------------------------------------
      1          6           0       -1.173849   -0.147543    0.000007
      2          8           0       -0.000000    0.391887    0.000000
      3          1           0       -1.996638    0.540982   -0.000042
      4          1           0       -1.260793   -1.223274    0.000025
      5          6           0        1.173849   -0.147543   -0.000008
      6          1           0        1.996638    0.540982    0.000042
      7          1           0        1.260793   -1.223274   -0.000025
 ---------------------------------------------------------------------
 Rotational constants (GHZ):          77.2339417          11.4056042           9.9379996
 Standard basis: CC-pVTZ (5D, 7F)
 There are   165 symmetry adapted cartesian basis functions of A   symmetry.
 There are   146 symmetry adapted basis functions of A   symmetry.
   146 basis functions,   224 primitive gaussians,   165 cartesian basis functions
    12 alpha electrons       12 beta electrons
       nuclear repulsion energy        73.1268102559 Hartrees.
 NAtoms=    7 NActive=    7 NUniq=    7 SFac= 1.00D+00 NAtFMM=   60 NAOKFM=F Big=F
 Integral buffers will be    131072 words long.
 Raffenetti 2 integral format.
 Two-electron integral symmetry is turned on.
 One-electron integrals computed using PRISM.
 NBasis=   146 RedAO= T EigKep=  1.42D-03  NBF=   146
 NBsUse=   146 1.00D-06 EigRej= -1.00D+00 NBFU=   146
 Initial guess from the checkpoint file:  "/scratch/dinius.ab/QMscratch/Gau-48800.chk"
 B after Tr=    -0.000000    0.000000    0.000000
         Rot=    1.000000   -0.000000    0.000000   -0.000000 Ang=  -0.00 deg.
 Keep R1 ints in memory in canonical form, NReq=77430765.
 Requested convergence on RMS density matrix=1.00D-08 within 900 cycles.
 Requested convergence on MAX density matrix=1.00D-06.
 Requested convergence on             energy=1.00D-06.
 No special actions if energy rises.
 SCF Done:  E(RM062X) =  -153.697603669     A.U. after    6 cycles
            NFock=  6  Conv=0.60D-08     -V/T= 2.0055
 Calling FoFJK, ICntrl=      2127 FMM=F ISym2X=0 I1Cent= 0 IOpClX= 0 NMat=1 NMatS=1 NMatT=0.
 ***** Axes restored to original set *****
 -------------------------------------------------------------------
 Center     Atomic                   Forces (Hartrees/Bohr)
 Number     Number              X              Y              Z
 -------------------------------------------------------------------
      1        6          -0.000039476   -0.000013244    0.000024931
      2        8           0.000009941   -0.000018910   -0.000059100
      3        1          -0.000006442   -0.000003526    0.000003783
      4        1          -0.000007023   -0.000002717    0.000002145
      5        6           0.000031333    0.000028633    0.000023280
      6        1           0.000005353    0.000005654    0.000002805
      7        1           0.000006314    0.000004110    0.000002156
 -------------------------------------------------------------------
 Cartesian Forces:  Max     0.000059100 RMS     0.000020595

 GradGradGradGradGradGradGradGradGradGradGradGradGradGradGradGradGradGrad
 Berny optimization.
 Using GDIIS optimizer.
 FormGI is forming the generalized inverse of G from B-inverse, IUseBI=4.
 Internal  Forces:  Max     0.000138146 RMS     0.000034290
 Search for a local minimum.
 Step number   5 out of a maximum of  100
 All quantities printed in internal units (Hartrees-Bohrs-Radians)
 Swapping is turned off.
 Update second derivatives using D2CorX and points    1    2    3    4    5
 DE= -1.43D-06 DEPred=-1.40D-06 R= 1.02D+00
 TightC=F SS=  1.41D+00  RLast= 2.98D-03 DXNew= 8.4853D-01 8.9412D-03
 Trust test= 1.02D+00 RLast= 2.98D-03 DXMaxT set to 5.05D-01
 The second derivative matrix:
                          R1        R2        R3        R4        R5
           R1           0.46986
           R2           0.01355   0.34317
           R3           0.01176   0.00009   0.34165
           R4           0.10048  -0.00414  -0.00212   0.46997
           R5          -0.00413   0.00065   0.00025   0.01354   0.34317
           R6          -0.00210   0.00025   0.00094   0.01175   0.00008
           A1           0.02147   0.00514  -0.00739   0.00729   0.00108
           A2           0.01305  -0.00932   0.00254  -0.01352  -0.00157
           A3          -0.03451   0.00417   0.00484   0.00623   0.00049
           A4           0.06316   0.00004  -0.00306   0.06324   0.00004
           A5           0.00729   0.00108   0.00066   0.02148   0.00514
           A6          -0.01352  -0.00157   0.00009   0.01304  -0.00932
           A7           0.00623   0.00049  -0.00076  -0.03452   0.00417
           D1           0.00021  -0.00000  -0.00002   0.00021  -0.00000
           D2           0.00019  -0.00000  -0.00002   0.00019  -0.00000
           D3          -0.00002   0.00000   0.00000  -0.00002   0.00000
           D4           0.00021  -0.00000  -0.00003   0.00021  -0.00000
           D5           0.00019  -0.00000  -0.00002   0.00019  -0.00000
           D6          -0.00002   0.00000   0.00000  -0.00002   0.00000
                          R6        A1        A2        A3        A4
           R6           0.34166
           A1           0.00066   0.10055
           A2           0.00009  -0.06513   0.10065
           A3          -0.00076  -0.03542  -0.03552   0.07094
           A4          -0.00306   0.00795  -0.00609  -0.00185   0.21403
           A5          -0.00738   0.00228  -0.00065  -0.00163   0.00795
           A6           0.00254  -0.00065  -0.00031   0.00096  -0.00609
           A7           0.00484  -0.00163   0.00096   0.00068  -0.00186
           D1          -0.00002  -0.00000   0.00003  -0.00003   0.00045
           D2          -0.00002  -0.00000   0.00003  -0.00003   0.00041
           D3           0.00000   0.00000  -0.00000   0.00000  -0.00005
           D4          -0.00002  -0.00000   0.00003  -0.00003   0.00045
           D5          -0.00002  -0.00000   0.00002  -0.00002   0.00041
           D6           0.00000  -0.00000  -0.00000   0.00000  -0.00005
                          A5        A6        A7        D1        D2
           A5           0.10055
           A6          -0.06513   0.10065
           A7          -0.03542  -0.03552   0.07094
           D1           0.00000   0.00003  -0.00003   0.01581
           D2           0.00000   0.00002  -0.00003   0.01313   0.01388
           D3           0.00000  -0.00000   0.00000  -0.00280   0.00078
           D4           0.00000   0.00003  -0.00003  -0.01014  -0.00720
           D5           0.00000   0.00002  -0.00002  -0.00720  -0.00518
           D6          -0.00000  -0.00000   0.00000   0.00306   0.00210
                          D3        D4        D5        D6
           D3           0.00373
           D4           0.00306   0.01581
           D5           0.00210   0.01313   0.01388
           D6          -0.00100  -0.00280   0.00078   0.00373
 ITU=  1  1  1  1  0
     Eigenvalues ---    0.00326   0.00588   0.01385   0.04384   0.09569
     Eigenvalues ---    0.10438   0.16257   0.16299   0.19535   0.33296
     Eigenvalues ---    0.34234   0.34304   0.34443   0.38816   0.59586
 DIIS coeff's:      0.83044      0.17661      0.01070     -0.01705     -0.00071
 Cosine:  1.000 >  0.670
 Length:  0.707
 GDIIS step was calculated using  5 of the last  5 vectors.
 Iteration  1 RMS(Cart)=  0.00034268 RMS(Int)=  0.00000005
 Iteration  2 RMS(Cart)=  0.00000006 RMS(Int)=  0.00000000
 Variable       Old X    -DE/DX   Delta X   Delta X   Delta X     New X
                                 (Linear)    (Quad)   (Total)
    R1        2.44126   0.00004  -0.00000   0.00000  -0.00000   2.44126
    R2        2.02743   0.00001   0.00002  -0.00000   0.00002   2.02745
    R3        2.03947  -0.00000   0.00000  -0.00000   0.00000   2.03947
    R4        2.44126   0.00004  -0.00000   0.00000  -0.00000   2.44126
    R5        2.02743   0.00001   0.00002  -0.00000   0.00002   2.02745
    R6        2.03947  -0.00000   0.00000  -0.00000   0.00000   2.03947
    A1        2.01404  -0.00000  -0.00003   0.00001  -0.00002   2.01402
    A2        2.08220   0.00001   0.00006   0.00000   0.00006   2.08227
    A3        2.18694  -0.00001  -0.00003  -0.00001  -0.00004   2.18690
    A4        2.28008   0.00014   0.00046  -0.00000   0.00046   2.28054
    A5        2.01404  -0.00000  -0.00003   0.00001  -0.00002   2.01402
    A6        2.08220   0.00001   0.00006   0.00000   0.00006   2.08227
    A7        2.18694  -0.00001  -0.00003  -0.00001  -0.00004   2.18690
    D1       -3.14154  -0.00000  -0.00001  -0.00014  -0.00016   3.14149
    D2        0.00002  -0.00000  -0.00000  -0.00005  -0.00005  -0.00003
    D3        3.14155   0.00000   0.00001   0.00010   0.00011  -3.14152
    D4       -3.14154  -0.00000  -0.00001  -0.00014  -0.00016   3.14149
    D5        0.00002  -0.00000  -0.00000  -0.00005  -0.00005  -0.00003
    D6        3.14155   0.00000   0.00001   0.00010   0.00012  -3.14152
         Item               Value     Threshold  Converged?
 Maximum Force            0.000138     0.000002     NO 
 RMS     Force            0.000034     0.000001     NO 
 Maximum Displacement     0.000801     0.000006     NO 
 RMS     Displacement     0.000343     0.000004     NO 
 Predicted change in Energy=-4.303594D-08
 GradGradGradGradGradGradGradGradGradGradGradGradGradGradGradGradGradGrad

                          Input orientation:                          
 ---------------------------------------------------------------------
 Center     Atomic      Atomic             Coordinates (Angstroms)
 Number     Number       Type             X           Y           Z
 ---------------------------------------------------------------------
      1          6           0       -4.890960    0.306179    0.016500
      2          8           0       -3.975745    1.084438    0.491472
      3          1           0       -5.698592    0.083204    0.686636
      4          1           0       -4.797448   -0.064743   -0.992673
      5          6           0       -2.892316    1.536695   -0.047553
      6          1           0       -2.299568    2.176119    0.577633
      7          1           0       -2.650212    1.257189   -1.061466
 ---------------------------------------------------------------------
                    Distance matrix (angstroms):
                    1          2          3          4          5
     1  C    0.000000
     2  O    1.291860   0.000000
     3  H    1.072879   2.002188   0.000000
     4  H    1.079239   2.049023   1.911551   0.000000
     5  C    2.347946   1.291860   3.244511   2.662214   0.000000
     6  H    3.244511   2.002189   3.993186   3.704959   1.072879
     7  H    2.662214   2.049023   3.704959   2.522471   1.079239
                    6          7
     6  H    0.000000
     7  H    1.911551   0.000000
 Stoichiometry    C2H4O
 Framework group  C1[X(C2H4O)]
 Deg. of freedom    15
 Full point group                 C1      NOp   1
 Largest Abelian subgroup         C1      NOp   1
 Largest concise Abelian subgroup C1      NOp   1
                         Standard orientation:                         
 ---------------------------------------------------------------------
 Center     Atomic      Atomic             Coordinates (Angstroms)
 Number     Number       Type             X           Y           Z
 ---------------------------------------------------------------------
      1          6           0       -1.173973   -0.147472   -0.000013
      2          8           0       -0.000000    0.391685    0.000000
      3          1           0       -1.996593    0.541270    0.000076
      4          1           0       -1.261235   -1.223178   -0.000046
      5          6           0        1.173973   -0.147472    0.000013
      6          1           0        1.996593    0.541270   -0.000076
      7          1           0        1.261235   -1.223178    0.000046
 ---------------------------------------------------------------------
 Rotational constants (GHZ):          77.2673596          11.4033231           9.9368206
 Standard basis: CC-pVTZ (5D, 7F)
 There are   165 symmetry adapted cartesian basis functions of A   symmetry.
 There are   146 symmetry adapted basis functions of A   symmetry.
   146 basis functions,   224 primitive gaussians,   165 cartesian basis functions
    12 alpha electrons       12 beta electrons
       nuclear repulsion energy        73.1252472451 Hartrees.
 NAtoms=    7 NActive=    7 NUniq=    7 SFac= 1.00D+00 NAtFMM=   60 NAOKFM=F Big=F
 Integral buffers will be    131072 words long.
 Raffenetti 2 integral format.
 Two-electron integral symmetry is turned on.
 One-electron integrals computed using PRISM.
 NBasis=   146 RedAO= T EigKep=  1.42D-03  NBF=   146
 NBsUse=   146 1.00D-06 EigRej= -1.00D+00 NBFU=   146
 Initial guess from the checkpoint file:  "/scratch/dinius.ab/QMscratch/Gau-48800.chk"
 B after Tr=     0.000000   -0.000000   -0.000000
         Rot=    1.000000    0.000000   -0.000000    0.000000 Ang=   0.00 deg.
 Keep R1 ints in memory in canonical form, NReq=77430765.
 Requested convergence on RMS density matrix=1.00D-08 within 900 cycles.
 Requested convergence on MAX density matrix=1.00D-06.
 Requested convergence on             energy=1.00D-06.
 No special actions if energy rises.
[...]
           X            1.00000   0.00000   0.00000
           Y           -0.00000   1.00000  -0.00000
           Z           -0.00000   0.00000   1.00000
 This molecule is an asymmetric top.
 Rotational symmetry number  1.
 Rotational temperatures (Kelvin)      3.70892     0.54723     0.47687
 Rotational constants (GHZ):          77.28127    11.40237     9.93632
 Zero-point vibrational energy     143270.5 (Joules/Mol)
                                   34.24246 (Kcal/Mol)
 Warning -- explicit consideration of   4 degrees of freedom as
           vibrations may cause significant error
 Vibrational temperatures:    634.09   680.32   787.37   833.94  1017.48
          (Kelvin)           1676.03  1683.96  1855.23  2113.82  2157.51
                             2205.76  4576.97  4593.53  4821.68  4825.29
 
 Zero-point correction=                           0.054569 (Hartree/Particle)
 Thermal correction to Energy=                    0.058456
 Thermal correction to Enthalpy=                  0.059400
 Thermal correction to Gibbs Free Energy=         0.030202
 Sum of electronic and zero-point Energies=           -153.643035
 Sum of electronic and thermal Energies=              -153.639148
 Sum of electronic and thermal Enthalpies=            -153.638204
 Sum of electronic and thermal Free Energies=         -153.667402
 
                     E (Thermal)             CV                S
                      KCal/Mol        Cal/Mol-Kelvin    Cal/Mol-Kelvin
 Total                   36.681             12.523             61.453
 Electronic               0.000              0.000              0.000
 Translational            0.889              2.981             37.273
 Rotational               0.889              2.981             21.134
 Vibrational             34.904              6.561              3.046
 Vibration     1          0.801              1.381              0.824
 Vibration     2          0.830              1.310              0.730
 Vibration     3          0.902              1.146              0.550
 Vibration     4          0.936              1.075              0.486
                       Q            Log10(Q)             Ln(Q)
 Total Bot       0.128313D-13        -13.891731        -31.986892
 Total V=0       0.161498D+12         11.208168         25.807761
 Vib (Bot)       0.120484D-24        -24.919072        -57.378284
 Vib (Bot)    1  0.392028D+00         -0.406683         -0.936423
 Vib (Bot)    2  0.355865D+00         -0.448714         -1.033203
 Vib (Bot)    3  0.287523D+00         -0.541328         -1.246453
 Vib (Bot)    4  0.263004D+00         -0.580038         -1.335586
 Vib (V=0)       0.151645D+01          0.180827          0.416369
 Vib (V=0)    1  0.113536D+01          0.055135          0.126952
 Vib (V=0)    2  0.111371D+01          0.046772          0.107697
 Vib (V=0)    3  0.107677D+01          0.032125          0.073970
 Vib (V=0)    4  0.106495D+01          0.027330          0.062930
 Electronic      0.100000D+01          0.000000          0.000000
 Translational   0.114821D+08          7.060021         16.256299
 Rotational      0.927514D+04          3.967320          9.135093
 ***** Axes restored to original set *****
 -------------------------------------------------------------------
 Center     Atomic                   Forces (Hartrees/Bohr)
 Number     Number              X              Y              Z
 -------------------------------------------------------------------
      1        6           0.000000024    0.000000017   -0.000000063
      2        8           0.000000228    0.000000135   -0.000000021
      3        1          -0.000000069   -0.000000027    0.000000035
      4        1           0.000000003   -0.000000031   -0.000000008
      5        6          -0.000000148   -0.000000109    0.000000036
      6        1          -0.000000013   -0.000000016   -0.000000016
      7        1          -0.000000025    0.000000031    0.000000038
 -------------------------------------------------------------------
 Cartesian Forces:  Max     0.000000228 RMS     0.000000076
 FormGI is forming the generalized inverse of G from B-inverse, IUseBI=4.

 GradGradGradGradGradGradGradGradGradGradGradGradGradGradGradGradGradGrad
 Berny optimization.
 Internal  Forces:  Max     0.000000216 RMS     0.000000061
 Search for a local minimum.
 Step number   1 out of a maximum of    2
 All quantities printed in internal units (Hartrees-Bohrs-Radians)
 Swapping is turned off.
 Second derivative matrix not updated -- analytic derivatives used.
 The second derivative matrix:
                          R1        R2        R3        R4        R5
           R1           0.55083
           R2           0.01417   0.38551
           R3           0.01572  -0.00011   0.36952
           R4           0.07686  -0.00621  -0.00285   0.55083
           R5          -0.00621   0.00025   0.00020   0.01417   0.38551
           R6          -0.00285   0.00020   0.00038   0.01572  -0.00011
           A1           0.02732   0.00463  -0.00969   0.00621   0.00042
           A2           0.01211  -0.00823   0.00628  -0.01082  -0.00024
           A3          -0.03943   0.00360   0.00341   0.00460  -0.00018
           A4           0.05778  -0.00076  -0.00363   0.05778  -0.00076
           A5           0.00621   0.00042  -0.00039   0.02732   0.00463
           A6          -0.01082  -0.00024   0.00160   0.01211  -0.00823
           A7           0.00460  -0.00018  -0.00121  -0.03943   0.00360
           D1           0.00000  -0.00000  -0.00000  -0.00000  -0.00000
           D2           0.00000   0.00000  -0.00000  -0.00000  -0.00000
           D3           0.00000   0.00000   0.00000  -0.00000   0.00000
           D4          -0.00000  -0.00000  -0.00000   0.00000  -0.00000
           D5          -0.00000  -0.00000  -0.00000   0.00000   0.00000
           D6          -0.00000   0.00000   0.00000   0.00000   0.00000
                          R6        A1        A2        A3        A4
           R6           0.36952
           A1          -0.00039   0.10404
           A2           0.00160  -0.06712   0.10275
           A3          -0.00121  -0.03692  -0.03563   0.07254
           A4          -0.00363   0.00743  -0.00628  -0.00115   0.21307
           A5          -0.00969  -0.00005   0.00158  -0.00153   0.00743
           A6           0.00628   0.00158  -0.00227   0.00069  -0.00628
           A7           0.00341  -0.00153   0.00069   0.00084  -0.00115
           D1          -0.00000  -0.00000   0.00000  -0.00000  -0.00000
           D2          -0.00000   0.00000  -0.00000   0.00000  -0.00000
           D3           0.00000   0.00000   0.00000  -0.00000  -0.00000
           D4          -0.00000   0.00000  -0.00000   0.00000  -0.00000
           D5          -0.00000  -0.00000   0.00000   0.00000  -0.00000
           D6           0.00000   0.00000   0.00000  -0.00000  -0.00000
                          A5        A6        A7        D1        D2
           A5           0.10404
           A6          -0.06712   0.10275
           A7          -0.03692  -0.03563   0.07254
           D1           0.00000  -0.00000   0.00000   0.01935
           D2          -0.00000   0.00000   0.00000   0.01633   0.01833
           D3           0.00000   0.00000  -0.00000  -0.00323   0.00213
           D4          -0.00000   0.00000  -0.00000  -0.00059   0.00201
           D5           0.00000  -0.00000   0.00000   0.00201   0.00389
           D6           0.00000   0.00000  -0.00000   0.00278   0.00200
                          D3        D4        D5        D6
           D3           0.00572
           D4           0.00278   0.01935
           D5           0.00200   0.01633   0.01833
           D6          -0.00083  -0.00323   0.00213   0.00572
 ITU=  0
     Eigenvalues ---    0.00673   0.00835   0.03259   0.03914   0.09933
     Eigenvalues ---    0.10615   0.16306   0.17241   0.19978   0.36644
     Eigenvalues ---    0.37073   0.38295   0.38604   0.48805   0.64851
 Angle between quadratic step and forces=  90.00 degrees.
 Linear search not attempted -- option 19 set.
 Iteration  1 RMS(Cart)=  0.00000061 RMS(Int)=  0.00000001
 Variable       Old X    -DE/DX   Delta X   Delta X   Delta X     New X
                                 (Linear)    (Quad)   (Total)
    R1        2.44126   0.00000   0.00000   0.00000   0.00000   2.44126
    R2        2.02745   0.00000   0.00000   0.00000   0.00000   2.02745
    R3        2.03947   0.00000   0.00000   0.00000   0.00000   2.03947
    R4        2.44126  -0.00000   0.00000  -0.00000  -0.00000   2.44126
    R5        2.02745  -0.00000   0.00000  -0.00000  -0.00000   2.02745
    R6        2.03947  -0.00000   0.00000  -0.00000  -0.00000   2.03947
    A1        2.01401   0.00000   0.00000   0.00000   0.00000   2.01401
    A2        2.08229  -0.00000   0.00000  -0.00000  -0.00000   2.08229
    A3        2.18688  -0.00000   0.00000  -0.00000  -0.00000   2.18688
    A4        2.28073  -0.00000   0.00000  -0.00000  -0.00000   2.28073
    A5        2.01401  -0.00000   0.00000   0.00000   0.00000   2.01401
    A6        2.08229   0.00000   0.00000   0.00000   0.00000   2.08229
    A7        2.18688   0.00000   0.00000  -0.00000  -0.00000   2.18688
    D1       -3.14159   0.00000   0.00000  -0.00000  -0.00000  -3.14159
    D2       -0.00000   0.00000   0.00000   0.00000   0.00000   0.00000
    D3        3.14159   0.00000   0.00000   0.00000   0.00000   3.14159
    D4       -3.14159   0.00000   0.00000  -0.00000  -0.00000  -3.14159
    D5       -0.00000   0.00000   0.00000   0.00000   0.00000   0.00000
    D6        3.14159   0.00000   0.00000   0.00000   0.00000   3.14159
         Item               Value     Threshold  Converged?
 Maximum Force            0.000000     0.000002     YES
 RMS     Force            0.000000     0.000001     YES
 Maximum Displacement     0.000001     0.000006     YES
 RMS     Displacement     0.000001     0.000004     YES
 Predicted change in Energy=-1.266309D-13
 Optimization completed.
    -- Stationary point found.
                           ----------------------------
                           !   Optimized Parameters   !
                           ! (Angstroms and Degrees)  !
 --------------------------                            --------------------------
 ! Name  Definition              Value          Derivative Info.                !
 --------------------------------------------------------------------------------
 ! R1    R(1,2)                  1.2919         -DE/DX =    0.0                 !
 ! R2    R(1,3)                  1.0729         -DE/DX =    0.0                 !
 ! R3    R(1,4)                  1.0792         -DE/DX =    0.0                 !
 ! R4    R(2,5)                  1.2919         -DE/DX =    0.0                 !
 ! R5    R(5,6)                  1.0729         -DE/DX =    0.0                 !
 ! R6    R(5,7)                  1.0792         -DE/DX =    0.0                 !
 ! A1    A(2,1,3)              115.3942         -DE/DX =    0.0                 !
 ! A2    A(2,1,4)              119.3066         -DE/DX =    0.0                 !
 ! A3    A(3,1,4)              125.2992         -DE/DX =    0.0                 !
 ! A4    A(1,2,5)              130.6763         -DE/DX =    0.0                 !
 ! A5    A(2,5,6)              115.3942         -DE/DX =    0.0                 !
 ! A6    A(2,5,7)              119.3066         -DE/DX =    0.0                 !
 ! A7    A(6,5,7)              125.2992         -DE/DX =    0.0                 !
 ! D1    D(3,1,2,5)           -180.0            -DE/DX =    0.0                 !
 ! D2    D(4,1,2,5)             -0.0001         -DE/DX =    0.0                 !
 ! D3    D(2,1,3,4)            179.9999         -DE/DX =    0.0                 !
 ! D4    D(1,2,5,6)           -180.0            -DE/DX =    0.0                 !
 ! D5    D(1,2,5,7)             -0.0001         -DE/DX =    0.0                 !
 ! D6    D(2,5,6,7)            179.9999         -DE/DX =    0.0                 !
 --------------------------------------------------------------------------------
 GradGradGradGradGradGradGradGradGradGradGradGradGradGradGradGradGradGrad


 ----------------------------------------------------------------------

 Electric dipole moment (input orientation):
 (Debye = 10**-18 statcoulomb cm , SI units = C m)
                  (au)            (Debye)         (10**-30 SI)
   Tot        0.219017D+00      0.556687D+00      0.185691D+01
   x          0.341680D-01      0.868464D-01      0.289689D+00
   y         -0.662136D-01     -0.168298D+00     -0.561382D+00
   z         -0.205954D+00     -0.523482D+00     -0.174615D+01

 Dipole polarizability, Alpha (input orientation).
 (esu units = cm**3 , SI units = C**2 m**2 J**-1)
 Alpha(0;0):
               (au)            (10**-24 esu)      (10**-40 SI)
   iso        0.386006D+02      0.572001D+01      0.636437D+01
   aniso      0.472863D+02      0.700711D+01      0.779646D+01
   xx         0.565506D+02      0.837994D+01      0.932394D+01
   yx         0.217919D+02      0.322922D+01      0.359300D+01
   yy         0.346593D+02      0.513597D+01      0.571454D+01
   zx        -0.178158D+01     -0.264003D+00     -0.293743D+00
   zy         0.527979D+00      0.782384D-01      0.870520D-01
   zz         0.245917D+02      0.364412D+01      0.405463D+01

 ----------------------------------------------------------------------

 Dipole orientation:
     6         -9.10777263         -0.31715978         -1.64611565
     8         -7.22413113         -1.48936195         -2.66474067
     1        -10.42748044          0.50410265         -2.94783152
     1         -9.24800616         -0.22989446          0.38665127
     6         -5.34050560         -2.66155459         -1.64607468
     1         -4.02077709         -3.48282928         -2.94776190
     1         -5.20030427         -2.74880059          0.38669532

 Electric dipole moment (dipole orientation):
 (Debye = 10**-18 statcoulomb cm , SI units = C m)
                  (au)            (Debye)         (10**-30 SI)
   Tot        0.219017D+00      0.556687D+00      0.185691D+01
   x          0.000000D+00      0.000000D+00      0.000000D+00
   y          0.000000D+00      0.000000D+00      0.000000D+00
   z          0.219017D+00      0.556687D+00      0.185691D+01

 Dipole polarizability, Alpha (dipole orientation).
 (esu units = cm**3 , SI units = C**2 m**2 J**-1)
 Alpha(0;0):
               (au)            (10**-24 esu)      (10**-40 SI)
   iso        0.386006D+02      0.572001D+01      0.636437D+01
   aniso      0.472863D+02      0.700711D+01      0.779646D+01
   xx         0.562611D+02      0.833703D+01      0.927620D+01
   yx        -0.221178D+02     -0.327752D+01     -0.364673D+01
   yy         0.344835D+02      0.510993D+01      0.568556D+01
   zx         0.352607D-03      0.522509D-04      0.581370D-04
   zy        -0.220259D-03     -0.326390D-04     -0.363158D-04
   zz         0.250570D+02      0.371307D+01      0.413135D+01

 ----------------------------------------------------------------------

 Test job not archived.
 1\1\GINC-C3042\Freq\RM062X\CC-pVTZ\C2H4O1\DINIUS.AB\02-Apr-2019\0\\#N 
 Geom=AllCheck Guess=TCheck SCRF=Check Test GenChk RM062X/CC-pVTZ Freq\
 \Title\\0,1\C,-4.8909883603,0.3061261799,0.0164993939\O,-3.9757255676,
 1.0843999751,0.4913538399\H,-5.6986146113,0.0832793919,0.6866893324\H,
 -4.7975737812,-0.0648863438,-0.9926488723\C,-2.8922831315,1.5367398618
 ,-0.0475749151\H,-2.2995692827,2.1760894647,0.5777232835\H,-2.65008526
 62,1.2573314716,-1.0614920628\\Version=EM64L-G16RevA.03\State=1-A\HF=-
 153.6976037\RMSD=2.851e-09\RMSF=7.617e-08\ZeroPoint=0.0545688\Thermal=
 0.0584556\Dipole=0.034168,-0.0662136,-0.2059537\DipoleDeriv=-0.8333757
 ,-0.2824439,-0.0232418,-0.5173275,-0.6127076,0.2657911,-0.5747266,-0.0
 812913,0.258076,1.4942048,0.9797817,0.0190194,0.9797817,0.4969897,-0.1
 641915,0.0190195,-0.1641915,-0.4633281,0.1042488,-0.0683393,0.0312188,
 -0.0625089,0.1643402,-0.0710963,0.0449066,-0.0624817,0.0209015,0.03742
 11,-0.0530193,0.1027837,-0.0693952,0.1337705,-0.0323466,0.0643329,-0.0
 565461,-0.0366084,-0.9710226,-0.4263191,-0.1576538,-0.1914379,-0.44846
 14,0.1698708,0.3938317,0.5169535,0.231477,0.1034185,-0.0619608,0.04742
 31,-0.0677902,0.1653315,-0.0609666,0.0337344,-0.0695818,0.0207408,0.06
 51052,-0.0876994,-0.0195495,-0.071322,0.1007371,-0.1070608,0.0189015,-
 0.0828611,-0.0312587\Polar=56.5506381,21.7918896,34.6592736,-1.7815827
 ,0.5279789,24.5917423\Quadrupole=0.3754324,-0.8933454,0.517913,1.31430
 69,-0.5015426,0.7790308\PG=C01 [X(C2H4O1)]\NImag=0\\0.56220480,0.26491
 621,0.28146588,-0.14200638,0.16333243,0.63850716,-0.23042033,-0.147189
 74,-0.07389324,0.61378926,-0.14589041,-0.17851579,-0.09425664,0.302843
 84,0.31340119,-0.07084220,-0.09233645,-0.15866996,-0.05411236,0.062991
 25,0.32383464,-0.20699301,-0.06105341,0.15767676,-0.03450213,-0.008765
 07,0.00747592,0.23233735,-0.05634175,-0.03014554,0.02017429,-0.0204849
 7,-0.02144380,0.01635214,0.07143190,0.04262338,0.16873922,0.02713658,-
 0.18890759,-0.02004136,-0.00096613,0.01183049,-0.16117314,-0.02840821,
 0.18122922,-0.05374773,-0.00346983,0.04951345,-0.00149285,-0.02155833,
 -0.02760260,0.00309096,0.00901481,0.01471843,0.04885526,-0.00701547,-0
 .05967985,-0.09517916,-0.01248169,-0.00504290,-0.02645979,0.00136423,0
 .00266072,0.00721879,0.01102828,0.06479022,0.04118852,-0.10041862,-0.3
 1136652,-0.00629117,-0.01304719,-0.00725545,-0.00324460,-0.00408637,-0
 .00607241,-0.03244153,0.11380748,0.32452818,-0.07874287,-0.06060411,0.
 00189936,-0.29564173,-0.10406813,0.12372986,0.00614437,-0.00134479,-0.
 00197629,0.00364831,0.00736159,0.00244289,0.54358824,-0.05969233,-0.01
 806555,0.00156166,-0.10276856,-0.10069026,0.02475110,-0.00128820,0.004
 53947,-0.00374147,0.00392778,-0.00209674,0.00428888,0.27722406,0.30368
 006,0.00404013,0.00290905,0.01969737,0.12678082,0.02667126,-0.17127364
 ,-0.00184340,-0.00365785,0.00107940,-0.00561933,-0.00078516,0.00006471
 ,-0.08559869,0.19730171,0.63490930,0.00418698,-0.00005069,0.00395463,-
 0.03610392,-0.01942596,-0.01518808,-0.00002326,-0.00139217,0.00004214,
 -0.00012434,-0.00083669,-0.00009671,-0.12198291,-0.11254649,-0.0888430
 1,0.14752860,0.00000592,0.00687513,-0.00016989,-0.00770611,-0.01953256
 ,0.00195650,-0.00113892,0.00121720,-0.00066520,-0.00050419,0.00063216,
 -0.00044653,-0.11725805,-0.13158331,-0.12797839,0.12750352,0.14382097,
 0.00408752,-0.00008627,0.00070114,0.01232930,0.01927482,0.01152098,0.0
 0063676,-0.00029097,0.00059320,0.00068399,0.00004481,0.00023415,-0.099
 90552,-0.13494072,-0.17247997,0.09579915,0.12633948,0.16484054,0.00351
 217,0.00745158,0.00285542,-0.01562830,-0.00313592,0.03653947,-0.000054
 27,-0.00088302,-0.00030900,-0.00022962,0.00057976,-0.00155741,-0.05701
 341,-0.00485627,0.05108348,0.00651886,-0.00090217,-0.01363119,0.062894
 58,0.00401783,-0.00193428,0.00453731,-0.01221277,0.01182412,0.01274526
 ,-0.00055051,0.00054856,-0.00057437,0.00156148,-0.00126362,-0.00009764
 ,-0.00131056,-0.05578367,-0.09446062,0.00674848,-0.00142959,-0.0103411
 5,0.00174605,0.04803847,-0.00520681,-0.00053673,0.00003841,0.01522802,
 -0.00066736,-0.00998706,0.00047170,-0.00008303,0.00024769,0.00074758,0
 .00135303,-0.00013266,0.05940840,-0.08922116,-0.31199717,0.00433188,0.
 00096404,-0.00541002,-0.07498077,0.08819121,0.32724081\\-0.00000002,-0
 .00000002,0.00000006,-0.00000023,-0.00000013,0.00000002,0.00000007,0.0
 0000003,-0.00000003,0.,0.00000003,0.,0.00000015,0.00000011,-0.00000004
 ,0.00000001,0.00000002,0.00000002,0.00000003,-0.00000003,-0.00000004\\
 \@


 FORGIVE MY NONSENSE AS I ALSO FORGIVE THOSE WHO THINK THEY TALK SENSE

                                                       -- ROBERT FROST
 Job cpu time:       0 days  0 hours 12 minutes 52.8 seconds.
 Elapsed time:       0 days  0 hours  0 minutes 39.4 seconds.
 File lengths (MBytes):  RWF=    272 Int=      0 D2E=      0 Chk=     32 Scr=     32
 Normal termination of Gaussian 16 at Tue Apr  2 09:39:52 2019.
