 Entering Gaussian System, Link 0=g16
 Input=nateC=O.com
 Output=nateC=O.log
 Initial command:
 /shared/centos7/gaussian/g16/l1.exe "/scratch/dinius.ab/QMscratch/Gau-439865.inp" -scrdir="/scratch/dinius.ab/QMscratch/"
 Default is to use a total of  20 processors:
                               20 via shared-memory
                                1 via Linda
 Entering Link 1 = /shared/centos7/gaussian/g16/l1.exe PID=    439866.
  
 Copyright (c) 1988,1990,1992,1993,1995,1998,2003,2009,2016,
            Gaussian, Inc.  All Rights Reserved.
  
 This is part of the Gaussian(R) 16 program.  It is based on
 the Gaussian(R) 09 system (copyright 2009, Gaussian, Inc.),
 the Gaussian(R) 03 system (copyright 2003, Gaussian, Inc.),
 the Gaussian(R) 98 system (copyright 1998, Gaussian, Inc.),
 the Gaussian(R) 94 system (copyright 1995, Gaussian, Inc.),
 the Gaussian 92(TM) system (copyright 1992, Gaussian, Inc.),
 the Gaussian 90(TM) system (copyright 1990, Gaussian, Inc.),
 the Gaussian 88(TM) system (copyright 1988, Gaussian, Inc.),
 the Gaussian 86(TM) system (copyright 1986, Carnegie Mellon
 University), and the Gaussian 82(TM) system (copyright 1983,
 Carnegie Mellon University). Gaussian is a federally registered
 trademark of Gaussian, Inc.
  
 This software contains proprietary and confidential information,
 including trade secrets, belonging to Gaussian, Inc.
  
 This software is provided under written license and may be
 used, copied, transmitted, or stored only in accord with that
 written license.
  
 The following legend is applicable only to US Government
 contracts under FAR:
  
                    RESTRICTED RIGHTS LEGEND
  
 Use, reproduction and disclosure by the US Government is
 subject to restrictions as set forth in subparagraphs (a)
 and (c) of the Commercial Computer Software - Restricted
 Rights clause in FAR 52.227-19.
  
 Gaussian, Inc.
 340 Quinnipiac St., Bldg. 40, Wallingford CT 06492
  
  
 ---------------------------------------------------------------
 Warning -- This program may not be used in any manner that
 competes with the business of Gaussian, Inc. or will provide
 assistance to any competitor of Gaussian, Inc.  The licensee
 of this program is prohibited from giving any competitor of
 Gaussian, Inc. access to this program.  By using this program,
 the user acknowledges that Gaussian, Inc. is engaged in the
 business of creating and licensing software in the field of
 computational chemistry and represents and warrants to the
 licensee that it is not a competitor of Gaussian, Inc. and that
 it will not use this program in any manner prohibited above.
 ---------------------------------------------------------------
  

 Cite this work as:
 Gaussian 16, Revision A.03,
 M. J. Frisch, G. W. Trucks, H. B. Schlegel, G. E. Scuseria, 
 M. A. Robb, J. R. Cheeseman, G. Scalmani, V. Barone, 
 G. A. Petersson, H. Nakatsuji, X. Li, M. Caricato, A. V. Marenich, 
 J. Bloino, B. G. Janesko, R. Gomperts, B. Mennucci, H. P. Hratchian, 
 J. V. Ortiz, A. F. Izmaylov, J. L. Sonnenberg, D. Williams-Young, 
 F. Ding, F. Lipparini, F. Egidi, J. Goings, B. Peng, A. Petrone, 
 T. Henderson, D. Ranasinghe, V. G. Zakrzewski, J. Gao, N. Rega, 
 G. Zheng, W. Liang, M. Hada, M. Ehara, K. Toyota, R. Fukuda, 
 J. Hasegawa, M. Ishida, T. Nakajima, Y. Honda, O. Kitao, H. Nakai, 
 T. Vreven, K. Throssell, J. A. Montgomery, Jr., J. E. Peralta, 
 F. Ogliaro, M. J. Bearpark, J. J. Heyd, E. N. Brothers, K. N. Kudin, 
 V. N. Staroverov, T. A. Keith, R. Kobayashi, J. Normand, 
 K. Raghavachari, A. P. Rendell, J. C. Burant, S. S. Iyengar, 
 J. Tomasi, M. Cossi, J. M. Millam, M. Klene, C. Adamo, R. Cammi, 
 J. W. Ochterski, R. L. Martin, K. Morokuma, O. Farkas, 
 J. B. Foresman, and D. J. Fox, Gaussian, Inc., Wallingford CT, 2016.
 
 ******************************************
 Gaussian 16:  EM64L-G16RevA.03 25-Dec-2016
                29-Mar-2019 
 ******************************************
 ----------------------------------------------------------------------
 #m062x/cc-pVTZ Opt=(calcfc,verytight,gdiis,maxcycles=900) freq IOP(2/1
 6=3) scf=(maxcycle=900)
 ----------------------------------------------------------------------

 Warning!  Use of Opt=GDIIS is deprecated since it is seldom a good choice.

 1/6=900,7=1,10=4,18=20,19=11,26=3,38=1/1,3;
 2/9=110,12=2,16=3,17=6,18=5,40=1/2;
 3/5=16,6=1,11=2,25=1,30=1,71=2,74=-55,140=1/1,2,3;
 4//1;
 5/5=2,7=900,38=5/2;
 8/6=4,10=90,11=11/1;
 11/6=1,8=1,9=11,15=111,16=1/1,2,10;
 10/6=1,13=1/2;
 6/7=2,8=2,9=2,10=2,28=1/1;
 7/10=1,18=20,25=1/1,2,3,16;
 1/6=900,7=1,10=4,18=20,19=11,26=3/3(2);
 2/9=110,16=3/2;
 99//99;
 2/9=110,16=3/2;
 3/5=16,6=1,11=2,25=1,30=1,71=1,74=-55/1,2,3;
 4/5=5,16=3,69=1/1;
 5/5=2,7=900,38=5/2;
 7//1,2,3,16;
 1/6=900,7=1,18=20,19=11,26=3/3(-5);
 2/9=110,16=3/2;
 6/7=2,8=2,9=2,10=2,19=2,28=1/1;
 99/9=1/99;
 -----
 Title
 -----
 Symbolic Z-matrix:
 Charge =  0 Multiplicity = 1
 C                    -5.12843   0.14966   0. 
 O                    -4.09198   0.80196   0. 
 H                    -5.79411   0.1041    0.87667 
 H                    -5.45746  -0.4308   -0.87667 
 O                     4.53117   0.6246    0. 
 
 Add virtual bond connecting atoms O5         and O2         Dist= 1.63D+01.

 GradGradGradGradGradGradGradGradGradGradGradGradGradGradGradGradGradGrad
 Berny optimization.
 Initialization pass.
                           ----------------------------
                           !    Initial Parameters    !
                           ! (Angstroms and Degrees)  !
 --------------------------                            --------------------------
 ! Name  Definition              Value          Derivative Info.                !
 --------------------------------------------------------------------------------
 ! R1    R(1,2)                  1.2246         calculate D2E/DX2 analytically  !
 ! R2    R(1,3)                  1.1017         calculate D2E/DX2 analytically  !
 ! R3    R(1,4)                  1.1017         calculate D2E/DX2 analytically  !
 ! R4    R(2,5)                  8.625          calculate D2E/DX2 analytically  !
 ! A1    A(2,1,3)              122.2359         calculate D2E/DX2 analytically  !
 ! A2    A(2,1,4)              122.2357         calculate D2E/DX2 analytically  !
 ! A3    A(3,1,4)              115.5284         calculate D2E/DX2 analytically  !
 ! A4    A(1,2,5)              146.637          calculate D2E/DX2 analytically  !
 ! D1    D(3,1,2,5)            109.8228         calculate D2E/DX2 analytically  !
 ! D2    D(4,1,2,5)            -70.1777         calculate D2E/DX2 analytically  !
 ! D3    D(2,1,3,4)            179.9995         calculate D2E/DX2 analytically  !
 --------------------------------------------------------------------------------
 Trust Radius=3.00D-01 FncErr=1.00D-07 GrdErr=1.00D-06 EigMax=2.50D+02 EigMin=1.00D-04
 Number of steps in this run=    100 maximum allowed number of steps=    100.
 GradGradGradGradGradGradGradGradGradGradGradGradGradGradGradGradGradGrad

                          Input orientation:                          
 ---------------------------------------------------------------------
 Center     Atomic      Atomic             Coordinates (Angstroms)
 Number     Number       Type             X           Y           Z
 ---------------------------------------------------------------------
      1          6           0       -5.128430    0.149660    0.000000
      2          8           0       -4.091980    0.801960    0.000000
      3          1           0       -5.794110    0.104100    0.876670
      4          1           0       -5.457460   -0.430800   -0.876670
      5          8           0        4.531170    0.624600    0.000000
 ---------------------------------------------------------------------
                    Distance matrix (angstroms):
                    1          2          3          4          5
     1  C    0.000000
     2  O    1.224632   0.000000
     3  H    1.101706   2.037843   0.000000
     4  H    1.101701   2.037838   1.863774   0.000000
     5  O    9.671269   8.624974  10.375494  10.082418   0.000000
 Stoichiometry    CH2O2
 Framework group  C1[X(CH2O2)]
 Deg. of freedom     9
 Full point group                 C1      NOp   1
 Largest Abelian subgroup         C1      NOp   1
 Largest concise Abelian subgroup C1      NOp   1
                         Standard orientation:                         
 ---------------------------------------------------------------------
 Center     Atomic      Atomic             Coordinates (Angstroms)
 Number     Number       Type             X           Y           Z
 ---------------------------------------------------------------------
      1          6           0        3.532315    0.225429    0.109977
      2          8           0        2.478000   -0.332396   -0.167466
      3          1           0        4.199551   -0.141543    0.906145
      4          1           0        3.876934    1.127752   -0.419925
      5          8           0       -6.136797    0.040048    0.024206
 ---------------------------------------------------------------------
 Rotational constants (GHZ):          96.0055760           0.5721356           0.5706055
 Standard basis: CC-pVTZ (5D, 7F)
 There are   135 symmetry adapted cartesian basis functions of A   symmetry.
 There are   118 symmetry adapted basis functions of A   symmetry.
   118 basis functions,   190 primitive gaussians,   135 cartesian basis functions
    12 alpha electrons       12 beta electrons
       nuclear repulsion energy        38.3249378950 Hartrees.
 NAtoms=    5 NActive=    5 NUniq=    5 SFac= 1.00D+00 NAtFMM=   60 NAOKFM=F Big=F
 Integral buffers will be    131072 words long.
 Raffenetti 2 integral format.
 Two-electron integral symmetry is turned on.
 One-electron integrals computed using PRISM.
 NBasis=   118 RedAO= T EigKep=  2.32D-03  NBF=   118
 NBsUse=   118 1.00D-06 EigRej= -1.00D+00 NBFU=   118
 ExpMin= 1.03D-01 ExpMax= 1.53D+04 ExpMxC= 5.22D+02 IAcc=3 IRadAn=         5 AccDes= 0.00D+00
 Harris functional with IExCor= 1009 and IRadAn=       5 diagonalized for initial guess.
 HarFok:  IExCor= 1009 AccDes= 0.00D+00 IRadAn=         5 IDoV= 1 UseB2=F ITyADJ=14
 ICtDFT=  3500011 ScaDFX=  1.000000  1.000000  1.000000  1.000000
 FoFCou: FMM=F IPFlag=           0 FMFlag=      100000 FMFlg1=           0
         NFxFlg=           0 DoJE=T BraDBF=F KetDBF=T FulRan=T
         wScrn=  0.000000 ICntrl=       500 IOpCl=  0 I1Cent=   200000004 NGrid=           0
         NMat0=    1 NMatS0=      1 NMatT0=    0 NMatD0=    1 NMtDS0=    0 NMtDT0=    0
 Petite list used in FoFCou.
 Keep R1 ints in memory in canonical form, NReq=43836800.
 Requested convergence on RMS density matrix=1.00D-08 within 900 cycles.
 Requested convergence on MAX density matrix=1.00D-06.
 Requested convergence on             energy=1.00D-06.
 No special actions if energy rises.
 Integral accuracy reduced to 1.0D-05 until final iterations.
 Initial convergence to 1.0D-05 achieved.  Increase integral accuracy.
 SCF Done:  E(RM062X) =  -189.464155272     A.U. after  102 cycles
            NFock=102  Conv=0.90D-08     -V/T= 2.0052
 DoSCS=F DFT=T ScalE2(SS,OS)=  1.000000  1.000000
 Range of M.O.s used for correlation:     1   118
 NBasis=   118 NAE=    12 NBE=    12 NFC=     0 NFV=     0
 NROrb=    118 NOA=    12 NOB=    12 NVA=   106 NVB=   106
 Symmetrizing basis deriv contribution to polar:
 IMax=3 JMax=2 DiffMx= 0.00D+00
 G2DrvN: will do     6 centers at a time, making    1 passes.
 Calling FoFCou, ICntrl=  3107 FMM=F I1Cent=   0 AccDes= 0.00D+00.
 End of G2Drv F.D. properties file   721 does not exist.
 End of G2Drv F.D. properties file   722 does not exist.
 End of G2Drv F.D. properties file   788 does not exist.
          IDoAtm=11111
          Differentiating once with respect to nuclear coordinates.
 Keep R1 ints in memory in canonical form, NReq=43771472.
          There are    18 degrees of freedom in the 1st order CPHF.  IDoFFX=6 NUNeed=     0.
     12 vectors produced by pass  0 Test12= 7.07D-15 5.56D-09 XBig12= 1.21D-01 1.48D-01.
 AX will form    12 AO Fock derivatives at one time.
     12 vectors produced by pass  1 Test12= 7.07D-15 5.56D-09 XBig12= 6.49D-02 1.14D-01.
     12 vectors produced by pass  2 Test12= 7.07D-15 5.56D-09 XBig12= 9.98D-04 1.09D-02.
     12 vectors produced by pass  3 Test12= 7.07D-15 5.56D-09 XBig12= 1.10D-05 9.44D-04.
     12 vectors produced by pass  4 Test12= 7.07D-15 5.56D-09 XBig12= 7.99D-08 7.95D-05.
      9 vectors produced by pass  5 Test12= 7.07D-15 5.56D-09 XBig12= 4.91D-10 4.97D-06.
      8 vectors produced by pass  6 Test12= 7.07D-15 5.56D-09 XBig12= 3.17D-12 4.20D-07.
      1 vectors produced by pass  7 Test12= 7.07D-15 5.56D-09 XBig12= 1.58D-14 3.12D-08.
 InvSVY:  IOpt=1 It=  1 EMax= 5.76D-15
 Solved reduced A of dimension    78 with    12 vectors.
 End of Minotr F.D. properties file   721 does not exist.
 End of Minotr F.D. properties file   722 does not exist.
 End of Minotr F.D. properties file   788 does not exist.

 **********************************************************************

            Population analysis using the SCF density.

 **********************************************************************

 Orbital symmetries:
       Occupied  (A) (A) (A) (A) (A) (A) (A) (A) (A) (A) (A) (A)
       Virtual   (A) (A) (A) (A) (A) (A) (A) (A) (A) (A) (A) (A)
                 (A) (A) (A) (A) (A) (A) (A) (A) (A) (A) (A) (A)
                 (A) (A) (A) (A) (A) (A) (A) (A) (A) (A) (A) (A)
                 (A) (A) (A) (A) (A) (A) (A) (A) (A) (A) (A) (A)
                 (A) (A) (A) (A) (A) (A) (A) (A) (A) (A) (A) (A)
                 (A) (A) (A) (A) (A) (A) (A) (A) (A) (A) (A) (A)
                 (A) (A) (A) (A) (A) (A) (A) (A) (A) (A) (A) (A)
                 (A) (A) (A) (A) (A) (A) (A) (A) (A) (A) (A) (A)
                 (A) (A) (A) (A) (A) (A) (A) (A) (A) (A)
 The electronic state is 1-A.
 Alpha  occ. eigenvalues --  -19.76892 -19.64700 -10.64357  -1.17660  -1.06626
 Alpha  occ. eigenvalues --   -0.73327  -0.57619  -0.53404  -0.46789  -0.45585
 Alpha  occ. eigenvalues --   -0.45585  -0.34989
 Alpha virt. eigenvalues --   -0.19047  -0.00698   0.08038   0.14015   0.18201
 Alpha virt. eigenvalues --    0.32745   0.33683   0.36620   0.47100   0.48072
 Alpha virt. eigenvalues --    0.53519   0.57157   0.58856   0.61443   0.61945
 Alpha virt. eigenvalues --    0.61946   0.70650   0.75493   0.75925   0.79410
 Alpha virt. eigenvalues --    0.87278   0.92915   1.02327   1.02407   1.05848
 Alpha virt. eigenvalues --    1.14502   1.15588   1.29974   1.45955   1.46894
 Alpha virt. eigenvalues --    1.47042   1.47042   1.50679   1.50679   1.56217
 Alpha virt. eigenvalues --    1.71840   1.77678   1.90894   2.04276   2.07535
 Alpha virt. eigenvalues --    2.09493   2.20556   2.35876   2.54073   2.59886
 Alpha virt. eigenvalues --    2.67216   2.75451   2.83857   2.87587   2.92258
 Alpha virt. eigenvalues --    2.96711   3.11176   3.14233   3.15883   3.28520
 Alpha virt. eigenvalues --    3.29354   3.30834   3.34684   3.56882   3.59282
 Alpha virt. eigenvalues --    3.62464   3.62464   3.67220   3.79023   3.82597
 Alpha virt. eigenvalues --    3.84364   3.90111   4.03804   4.09848   4.35603
 Alpha virt. eigenvalues --    4.36952   4.57309   4.66137   4.67971   4.69845
 Alpha virt. eigenvalues --    4.98752   5.00607   5.05090   5.05090   5.07112
 Alpha virt. eigenvalues --    5.08133   5.08133   5.13205   5.13205   5.16168
 Alpha virt. eigenvalues --    5.23928   5.24338   5.61624   5.65475   5.79143
 Alpha virt. eigenvalues --    6.07040   6.08140   6.11103   6.12800   6.12801
 Alpha virt. eigenvalues --    6.16117   6.16117   6.34774   6.37593   6.77578
 Alpha virt. eigenvalues --    6.83360   6.97656   7.00984   7.01958  10.39727
 Alpha virt. eigenvalues --   12.59053
          Condensed to atoms (all electrons):
               1          2          3          4          5
     1  C    4.442414   0.661676   0.362276   0.362257   0.000000
     2  O    0.661676   7.773054  -0.076060  -0.076051   0.000000
     3  H    0.362276  -0.076060   0.776546  -0.118379   0.000000
     4  H    0.362257  -0.076051  -0.118379   0.776548   0.000000
     5  O    0.000000   0.000000   0.000000   0.000000   8.000000
 Mulliken charges:
               1
     1  C    0.171377
     2  O   -0.282619
     3  H    0.055617
     4  H    0.055625
     5  O   -0.000000
 Sum of Mulliken charges =  -0.00000
 Mulliken charges with hydrogens summed into heavy atoms:
               1
     1  C    0.282619
     2  O   -0.282619
     5  O   -0.000000
 APT charges:
               1
     1  C    0.296399
     2  O   -1.009448
     3  H    0.398964
     4  H    0.314085
     5  O   -0.000000
 Sum of APT charges =  -0.00000
 APT charges with hydrogens summed into heavy atoms:
               1
     1  C    1.009448
     2  O   -1.009448
     5  O   -0.000000
 Electronic spatial extent (au):  <R**2>=           1676.6208
 Charge=             -0.0000 electrons
 Dipole moment (field-independent basis, Debye):
    X=              2.1759    Y=              1.1490    Z=              0.5715  Tot=              2.5261
 Quadrupole moment (field-independent basis, Debye-Ang):
   XX=             -2.3863   YY=            -17.4879   ZZ=            -17.4597
   XY=              2.9956   XZ=              1.5007   YZ=             -0.0967
 Traceless Quadrupole moment (field-independent basis, Debye-Ang):
   XX=             10.0583   YY=             -5.0433   ZZ=             -5.0151
   XY=              2.9956   XZ=              1.5007   YZ=             -0.0967
 Octapole moment (field-independent basis, Debye-Ang**2):
  XXX=             21.7512  YYY=             -0.0151  ZZZ=             -0.0374  XYY=             -0.5958
  XXY=             14.5445  XXZ=              7.9877  XZZ=             -0.0239  YZZ=             -0.2620
  YYZ=             -0.4799  XYZ=             -0.9808
 Hexadecapole moment (field-independent basis, Debye-Ang**3):
 XXXX=          -1330.0376 YYYY=            -25.7445 ZZZZ=            -20.8931 XXXY=            -15.2098
 XXXZ=             -5.1098 YYYX=              0.0032 YYYZ=             -0.0055 ZZZX=             -0.0311
 ZZZY=              0.1421 XXYY=           -337.4072 XXZZ=           -337.6131 YYZZ=             -7.6211
 XXYZ=             -1.7159 YYXZ=             -1.7408 ZZXY=             -0.9658
 N-N= 3.832493789500D+01 E-N=-5.231709032462D+02  KE= 1.884801535050D+02
  Exact polarizability:   0.000   0.000   0.000   0.000   0.000   0.000
 Approx polarizability:  25.991   4.892  18.825   3.103  -0.324  16.737
 Calling FoFJK, ICntrl=    100147 FMM=F ISym2X=0 I1Cent= 0 IOpClX= 0 NMat=1 NMatS=1 NMatT=0.
 ***** Axes restored to original set *****
 -------------------------------------------------------------------
 Center     Atomic                   Forces (Hartrees/Bohr)
 Number     Number              X              Y              Z
 -------------------------------------------------------------------
      1        6           0.035969329    0.022650860   -0.000003347
      2        8          -0.040424635   -0.025452463    0.000008400
      3        1           0.002053435    0.001687365    0.000933548
      4        1           0.002412462    0.001113393   -0.000938549
      5        8          -0.000010591    0.000000845   -0.000000052
 -------------------------------------------------------------------
 Cartesian Forces:  Max     0.040424635 RMS     0.016542287
 FormGI is forming the generalized inverse of G from B-inverse, IUseBI=4.

 GradGradGradGradGradGradGradGradGradGradGradGradGradGradGradGradGradGrad
 Berny optimization.
 Internal  Forces:  Max     0.047778788 RMS     0.014477155
 Search for a local minimum.
 Step number   1 out of a maximum of  100
 All quantities printed in internal units (Hartrees-Bohrs-Radians)
 Swapping is turned off.
 Second derivative matrix not updated -- analytic derivatives used.
 The second derivative matrix:
                          R1        R2        R3        R4        A1
           R1           0.77516
           R2           0.03283   0.31963
           R3           0.03281   0.00457   0.31954
           R4           0.00001  -0.00000  -0.00000  -0.00000
           A1           0.01753   0.00147  -0.01025  -0.00000   0.11154
           A2           0.01760  -0.01024   0.00142   0.00000  -0.06943
           A3          -0.03513   0.00877   0.00882   0.00000  -0.04211
           A4          -0.00005   0.00011   0.00003   0.00000   0.00003
           D1          -0.00000  -0.00001   0.00004  -0.00000  -0.00004
           D2          -0.00001  -0.00004   0.00001  -0.00000  -0.00006
           D3          -0.00001  -0.00002  -0.00004  -0.00000  -0.00002
                          A2        A3        A4        D1        D2
           A2           0.11155
           A3          -0.04212   0.08423
           A4          -0.00011   0.00008  -0.00001
           D1           0.00002   0.00002   0.00013   0.00792
           D2           0.00009  -0.00003   0.00011  -0.00798   0.00786
           D3           0.00006  -0.00005  -0.00002  -0.01491   0.01485
                          D3
           D3           0.02790
 ITU=  0
     Eigenvalues ---   -0.00023  -0.00000   0.00013   0.04377   0.12183
     Eigenvalues ---    0.17996   0.31603   0.32134   0.78249
 Eigenvalue     1 is  -2.26D-04 should be greater than     0.000000 Eigenvector:
                          A4        D2        D1        R4        A2
   1                   -0.61934   0.55536   0.55490   0.00842  -0.00076
                          D3        A3        A1        R2        R3
   1                    0.00043   0.00041   0.00034   0.00027  -0.00002
 Eigenvalue     2 is  -3.44D-06 should be greater than     0.000000 Eigenvector:
                          R4        D2        D1        A4        D3
   1                   -0.99991   0.00941   0.00939   0.00326   0.00001
                          R1        R3        R2        A3        A2
   1                    0.00001  -0.00001  -0.00001   0.00001  -0.00000
 Quadratic step=2.966D+00 exceeds max=3.000D-01 adjusted using Lamda=-3.153D-05.
 Angle between NR and scaled steps=  11.90 degrees.
 Angle between quadratic step and forces=  78.02 degrees.
 Linear search not attempted -- option 19 set.
 Iteration  1 RMS(Cart)=  0.07387609 RMS(Int)=  0.02767374
 Iteration  2 RMS(Cart)=  0.02465111 RMS(Int)=  0.00000061
 Iteration  3 RMS(Cart)=  0.00000127 RMS(Int)=  0.00000022
 Iteration  4 RMS(Cart)=  0.00000000 RMS(Int)=  0.00000022
 Variable       Old X    -DE/DX   Delta X   Delta X   Delta X     New X
                                 (Linear)    (Quad)   (Total)
    R1        2.31422  -0.04778   0.00000  -0.06110  -0.06110   2.25312
    R2        2.08192  -0.00057   0.00000   0.00392   0.00392   2.08585
    R3        2.08191  -0.00056   0.00000   0.00393   0.00393   2.08584
    R4       16.29884  -0.00001   0.00000  -0.29175  -0.29175  16.00709
    A1        2.13342  -0.00192   0.00000  -0.00640  -0.00640   2.12702
    A2        2.13342  -0.00192   0.00000  -0.00640  -0.00640   2.12701
    A3        2.01635   0.00383   0.00000   0.01280   0.01280   2.02915
    A4        2.55930   0.00000   0.00000  -0.01413  -0.01413   2.54516
    D1        1.91677   0.00000   0.00000   0.01849   0.01849   1.93526
    D2       -1.22483   0.00001   0.00000   0.01861   0.01861  -1.20622
    D3        3.14158   0.00000   0.00000   0.00012   0.00012  -3.14148
         Item               Value     Threshold  Converged?
 Maximum Force            0.047779     0.000002     NO 
 RMS     Force            0.014477     0.000001     NO 
 Maximum Displacement     0.279966     0.000006     NO 
 RMS     Displacement     0.097497     0.000004     NO 
 Predicted change in Energy=-1.497577D-03
 GradGradGradGradGradGradGradGradGradGradGradGradGradGradGradGradGradGrad

                          Input orientation:                          
 ---------------------------------------------------------------------
 Center     Atomic      Atomic             Coordinates (Angstroms)
 Number     Number       Type             X           Y           Z
 ---------------------------------------------------------------------
      1          6           0       -5.086587    0.155246    0.000740
      2          8           0       -4.085459    0.802771    0.007034
      3          1           0       -5.756558    0.109478    0.876741
      4          1           0       -5.395224   -0.432071   -0.881379
      5          8           0        4.383018    0.614096   -0.003135
 ---------------------------------------------------------------------
                    Distance matrix (angstroms):
                    1          2          3          4          5
     1  C    0.000000
     2  O    1.192302   0.000000
     3  H    1.103782   2.007391   0.000000
     4  H    1.103781   2.007386   1.874786   0.000000
     5  O    9.480716   8.470585  10.190183   9.873186   0.000000
 Stoichiometry    CH2O2
 Framework group  C1[X(CH2O2)]
 Deg. of freedom     9
 Full point group                 C1      NOp   1
 Largest Abelian subgroup         C1      NOp   1
 Largest concise Abelian subgroup C1      NOp   1
                         Standard orientation:                         
 ---------------------------------------------------------------------
 Center     Atomic      Atomic             Coordinates (Angstroms)
 Number     Number       Type             X           Y           Z
 ---------------------------------------------------------------------
      1          6           0        3.457440    0.223446    0.110750
      2          8           0        2.439235   -0.330026   -0.169452
      3          1           0        4.129578   -0.156876    0.899369
      4          1           0        3.780607    1.144885   -0.403881
      5          8           0       -6.021088    0.038941    0.024454
 ---------------------------------------------------------------------
 Rotational constants (GHZ):          96.1217626           0.5944213           0.5927569
 Standard basis: CC-pVTZ (5D, 7F)
 There are   135 symmetry adapted cartesian basis functions of A   symmetry.
 There are   118 symmetry adapted basis functions of A   symmetry.
   118 basis functions,   190 primitive gaussians,   135 cartesian basis functions
    12 alpha electrons       12 beta electrons
       nuclear repulsion energy        39.0785385159 Hartrees.
 NAtoms=    5 NActive=    5 NUniq=    5 SFac= 1.00D+00 NAtFMM=   60 NAOKFM=F Big=F
 Integral buffers will be    131072 words long.
 Raffenetti 2 integral format.
 Two-electron integral symmetry is turned on.
 One-electron integrals computed using PRISM.
 NBasis=   118 RedAO= T EigKep=  2.34D-03  NBF=   118
 NBsUse=   118 1.00D-06 EigRej= -1.00D+00 NBFU=   118
 Initial guess from the checkpoint file:  "/scratch/dinius.ab/QMscratch/Gau-439866.chk"
 B after Tr=     0.000000   -0.000000   -0.000000
         Rot=    0.999977   -0.006751   -0.000004   -0.000134 Ang=  -0.77 deg.
 ExpMin= 1.03D-01 ExpMax= 1.53D+04 ExpMxC= 5.22D+02 IAcc=2 IRadAn=         4 AccDes= 0.00D+00
 Harris functional with IExCor= 1009 and IRadAn=       4 diagonalized for initial guess.
 HarFok:  IExCor= 1009 AccDes= 0.00D+00 IRadAn=         4 IDoV= 1 UseB2=F ITyADJ=14
 ICtDFT=  3500011 ScaDFX=  1.000000  1.000000  1.000000  1.000000
 FoFCou: FMM=F IPFlag=           0 FMFlag=      100000 FMFlg1=           0
         NFxFlg=           0 DoJE=T BraDBF=F KetDBF=T FulRan=T
         wScrn=  0.000000 ICntrl=       500 IOpCl=  0 I1Cent=   200000004 NGrid=           0
         NMat0=    1 NMatS0=      1 NMatT0=    0 NMatD0=    1 NMtDS0=    0 NMtDT0=    0
 Petite list used in FoFCou.
 Keep R1 ints in memory in canonical form, NReq=43836800.
 Requested convergence on RMS density matrix=1.00D-08 within 900 cycles.
 Requested convergence on MAX density matrix=1.00D-06.
 Requested convergence on             energy=1.00D-06.
 No special actions if energy rises.
 Integral accuracy reduced to 1.0D-05 until final iterations.
 Initial convergence to 1.0D-05 achieved.  Increase integral accuracy.
 SCF Done:  E(RM062X) =  -189.465542406     A.U. after   14 cycles
            NFock= 14  Conv=0.90D-08     -V/T= 2.0045
 Calling FoFJK, ICntrl=      2127 FMM=F ISym2X=0 I1Cent= 0 IOpClX= 0 NMat=1 NMatS=1 NMatT=0.
 ***** Axes restored to original set *****
 -------------------------------------------------------------------
 Center     Atomic                   Forces (Hartrees/Bohr)
 Number     Number              X              Y              Z
 -------------------------------------------------------------------
      1        6          -0.004331130   -0.002804715   -0.000024583
      2        8           0.004598026    0.002972420    0.000036652
      3        1          -0.000144626   -0.000058866    0.000077080
      4        1          -0.000110973   -0.000109906   -0.000089123
      5        8          -0.000011296    0.000001067   -0.000000026
 -------------------------------------------------------------------
 Cartesian Forces:  Max     0.004598026 RMS     0.001943656

 GradGradGradGradGradGradGradGradGradGradGradGradGradGradGradGradGradGrad
 Berny optimization.
 Using GDIIS optimizer.
 FormGI is forming the generalized inverse of G from B-inverse, IUseBI=4.
 Internal  Forces:  Max     0.005465795 RMS     0.001649902
 Search for a local minimum.
 Step number   2 out of a maximum of  100
 All quantities printed in internal units (Hartrees-Bohrs-Radians)
 Swapping is turned off.
 Update second derivatives using D2CorX and points    1    2
 DE= -1.39D-03 DEPred=-1.50D-03 R= 9.26D-01
 TightC=F SS=  1.41D+00  RLast= 3.00D-01 DXNew= 5.0454D-01 9.0008D-01
 Trust test= 9.26D-01 RLast= 3.00D-01 DXMaxT set to 5.05D-01
 The second derivative matrix:
                          R1        R2        R3        R4        A1
           R1           0.86435
           R2           0.03528   0.31968
           R3           0.03540   0.00462   0.31959
           R4           0.00001  -0.00000  -0.00000  -0.00000
           A1           0.01854   0.00154  -0.01018  -0.00000   0.11148
           A2           0.01858  -0.01018   0.00149   0.00000  -0.06948
           A3          -0.03712   0.00864   0.00869   0.00000  -0.04200
           A4          -0.00008   0.00011   0.00003   0.00000   0.00003
           D1          -0.00004  -0.00001   0.00004  -0.00000  -0.00004
           D2          -0.00006  -0.00004   0.00000  -0.00000  -0.00006
           D3          -0.00002  -0.00002  -0.00004  -0.00000  -0.00002
                          A2        A3        A4        D1        D2
           A2           0.11149
           A3          -0.04201   0.08401
           A4          -0.00011   0.00008  -0.00001
           D1           0.00002   0.00002   0.00013   0.00792
           D2           0.00009  -0.00003   0.00011  -0.00798   0.00786
           D3           0.00006  -0.00005  -0.00002  -0.01491   0.01485
                          D3
           D3           0.02790
 ITU=  1  0
     Eigenvalues ---   -0.00023  -0.00000   0.00013   0.04377   0.12159
     Eigenvalues ---    0.17996   0.31603   0.32150   0.87152
 Eigenvalue     2 is  -3.44D-06 should be greater than     0.000000 Eigenvector:
                          R4        D2        D1        A4        D3
   1                    0.99991  -0.00941  -0.00940  -0.00327  -0.00001
                          R1        R3        R2        A3        A2
   1                   -0.00001   0.00001   0.00001  -0.00001   0.00000
 DIIS coeff's:      0.89919      0.10081
 Cosine:  0.987 >  0.970
 Length:  1.002
 GDIIS step was calculated using  2 of the last  2 vectors.
 Iteration  1 RMS(Cart)=  0.00742254 RMS(Int)=  0.00002413
 Iteration  2 RMS(Cart)=  0.00003217 RMS(Int)=  0.00000002
 Iteration  3 RMS(Cart)=  0.00000000 RMS(Int)=  0.00000002
 Variable       Old X    -DE/DX   Delta X   Delta X   Delta X     New X
                                 (Linear)    (Quad)   (Total)
    R1        2.25312   0.00547   0.00616   0.00025   0.00641   2.25953
    R2        2.08585   0.00015  -0.00040   0.00013  -0.00027   2.08558
    R3        2.08584   0.00016  -0.00040   0.00015  -0.00024   2.08560
    R4       16.00709  -0.00001   0.02941  -0.01115   0.01826  16.02535
    A1        2.12702   0.00006   0.00064  -0.00114  -0.00049   2.12653
    A2        2.12701   0.00006   0.00065  -0.00116  -0.00052   2.12650
    A3        2.02915  -0.00012  -0.00129   0.00230   0.00101   2.03016
    A4        2.54516  -0.00001   0.00142  -0.00953  -0.00811   2.53706
    D1        1.93526   0.00000  -0.00186   0.00450   0.00263   1.93789
    D2       -1.20622   0.00000  -0.00188   0.00450   0.00262  -1.20359
    D3       -3.14148  -0.00000  -0.00001   0.00000  -0.00001  -3.14149
         Item               Value     Threshold  Converged?
 Maximum Force            0.005466     0.000002     NO 
 RMS     Force            0.001650     0.000001     NO 
 Maximum Displacement     0.016090     0.000006     NO 
 RMS     Displacement     0.007426     0.000004     NO 
 Predicted change in Energy=-1.729655D-05
 GradGradGradGradGradGradGradGradGradGradGradGradGradGradGradGradGradGrad

                          Input orientation:                          
 ---------------------------------------------------------------------
 Center     Atomic      Atomic             Coordinates (Angstroms)
 Number     Number       Type             X           Y           Z
 ---------------------------------------------------------------------
      1          6           0       -5.088865    0.154958    0.000909
      2          8           0       -4.089429    0.811286    0.007751
      3          1           0       -5.759305    0.106035    0.876202
      4          1           0       -5.391695   -0.435390   -0.881037
      5          8           0        4.388484    0.612631   -0.003826
 ---------------------------------------------------------------------
                    Distance matrix (angstroms):
                    1          2          3          4          5
     1  C    0.000000
     2  O    1.195694   0.000000
     3  H    1.103640   2.009993   0.000000
     4  H    1.103651   2.009985   1.875145   0.000000
     5  O    9.488394   8.480248  10.198467   9.875209   0.000000
 Stoichiometry    CH2O2
 Framework group  C1[X(CH2O2)]
 Deg. of freedom     9
 Full point group                 C1      NOp   1
 Largest Abelian subgroup         C1      NOp   1
 Largest concise Abelian subgroup C1      NOp   1
                         Standard orientation:                         
 ---------------------------------------------------------------------
 Center     Atomic      Atomic             Coordinates (Angstroms)
 Number     Number       Type             X           Y           Z
 ---------------------------------------------------------------------
      1          6           0        3.459609    0.229241    0.107979
      2          8           0        2.443186   -0.338159   -0.165194
      3          1           0        4.132394   -0.132499    0.904551
      4          1           0        3.776643    1.143637   -0.422507
      5          8           0       -6.026522    0.039836    0.023954
 ---------------------------------------------------------------------
 Rotational constants (GHZ):          94.2793658           0.5933522           0.5916253
 Standard basis: CC-pVTZ (5D, 7F)
 There are   135 symmetry adapted cartesian basis functions of A   symmetry.
 There are   118 symmetry adapted basis functions of A   symmetry.
   118 basis functions,   190 primitive gaussians,   135 cartesian basis functions
    12 alpha electrons       12 beta electrons
       nuclear repulsion energy        39.0061571186 Hartrees.
 NAtoms=    5 NActive=    5 NUniq=    5 SFac= 1.00D+00 NAtFMM=   60 NAOKFM=F Big=F
 Integral buffers will be    131072 words long.
 Raffenetti 2 integral format.
 Two-electron integral symmetry is turned on.
 One-electron integrals computed using PRISM.
 NBasis=   118 RedAO= T EigKep=  2.34D-03  NBF=   118
 NBsUse=   118 1.00D-06 EigRej= -1.00D+00 NBFU=   118
 Initial guess from the checkpoint file:  "/scratch/dinius.ab/QMscratch/Gau-439866.chk"
 B after Tr=    -0.000000    0.000000    0.000000
         Rot=    0.999952    0.009762    0.000002   -0.000032 Ang=   1.12 deg.
 Keep R1 ints in memory in canonical form, NReq=43836800.
 Requested convergence on RMS density matrix=1.00D-08 within 900 cycles.
 Requested convergence on MAX density matrix=1.00D-06.
 Requested convergence on             energy=1.00D-06.
 No special actions if energy rises.
 SCF Done:  E(RM062X) =  -189.465558239     A.U. after   50 cycles
            NFock= 50  Conv=0.64D-08     -V/T= 2.0046
 Calling FoFJK, ICntrl=      2127 FMM=F ISym2X=0 I1Cent= 0 IOpClX= 0 NMat=1 NMatS=1 NMatT=0.
 ***** Axes restored to original set *****
 -------------------------------------------------------------------
 Center     Atomic                   Forces (Hartrees/Bohr)
 Number     Number              X              Y              Z
 -------------------------------------------------------------------
      1        6           0.000435861    0.000276487   -0.000012394
      2        8          -0.000439983   -0.000290810    0.000011970
      3        1           0.000006650    0.000004457   -0.000010038
      4        1           0.000008725    0.000008896    0.000010488
      5        8          -0.000011253    0.000000970   -0.000000026
 -------------------------------------------------------------------
 Cartesian Forces:  Max     0.000439983 RMS     0.000190688

 GradGradGradGradGradGradGradGradGradGradGradGradGradGradGradGradGradGrad
 Berny optimization.
 Using GDIIS optimizer.
 FormGI is forming the generalized inverse of G from B-inverse, IUseBI=4.
 Internal  Forces:  Max     0.000536646 RMS     0.000162018
 Search for a local minimum.
 Step number   3 out of a maximum of  100
 All quantities printed in internal units (Hartrees-Bohrs-Radians)
 Swapping is turned off.
 Update second derivatives using D2CorX and points    1    2    3
 DE= -1.58D-05 DEPred=-1.73D-05 R= 9.15D-01
 TightC=F SS=  1.41D+00  RLast= 2.13D-02 DXNew= 8.4853D-01 6.4045D-02
 Trust test= 9.15D-01 RLast= 2.13D-02 DXMaxT set to 5.05D-01
 The second derivative matrix:
                          R1        R2        R3        R4        A1
           R1           0.94807
           R2           0.03712   0.31971
           R3           0.03790   0.00467   0.31967
           R4           0.00001  -0.00000  -0.00000  -0.00000
           A1           0.01913   0.00155  -0.01017  -0.00000   0.11150
           A2           0.01873  -0.01018   0.00149   0.00000  -0.06947
           A3          -0.03786   0.00864   0.00868   0.00000  -0.04202
           A4          -0.00059   0.00010   0.00002   0.00000   0.00003
           D1          -0.00051  -0.00003   0.00003  -0.00000  -0.00004
           D2          -0.00032  -0.00004  -0.00000  -0.00000  -0.00006
           D3           0.00017  -0.00002  -0.00003  -0.00000  -0.00002
                          A2        A3        A4        D1        D2
           A2           0.11150
           A3          -0.04203   0.08405
           A4          -0.00012   0.00009  -0.00001
           D1           0.00002   0.00003   0.00013   0.00792
           D2           0.00008  -0.00002   0.00011  -0.00798   0.00786
           D3           0.00006  -0.00005  -0.00002  -0.01491   0.01485
                          D3
           D3           0.02790
 ITU=  1  1  0
     Eigenvalues ---   -0.00023  -0.00000   0.00013   0.04377   0.12185
     Eigenvalues ---    0.17996   0.31603   0.32167   0.95499
 Eigenvalue     2 is  -3.44D-06 should be greater than     0.000000 Eigenvector:
                          R4        D2        D1        A4        R1
   1                    0.99991  -0.00944  -0.00942  -0.00329  -0.00002
                          D3        A3        R3        R2        A2
   1                   -0.00001  -0.00001   0.00001   0.00001   0.00001
 DIIS coeff's:      0.85718      0.13683      0.00599
 Cosine:  0.997 >  0.840
 Length:  0.954
 GDIIS step was calculated using  3 of the last  3 vectors.
 Iteration  1 RMS(Cart)=  0.00839217 RMS(Int)=  0.00002454
 Iteration  2 RMS(Cart)=  0.00003112 RMS(Int)=  0.00000000
 Iteration  3 RMS(Cart)=  0.00000000 RMS(Int)=  0.00000000
 Variable       Old X    -DE/DX   Delta X   Delta X   Delta X     New X
                                 (Linear)    (Quad)   (Total)
    R1        2.25953  -0.00054  -0.00055   0.00001  -0.00054   2.25899
    R2        2.08558  -0.00001   0.00001   0.00002   0.00004   2.08561
    R3        2.08560  -0.00002   0.00001   0.00001   0.00002   2.08562
    R4       16.02535  -0.00001  -0.00086  -0.01119  -0.01205  16.01330
    A1        2.12653  -0.00000   0.00011  -0.00005   0.00006   2.12659
    A2        2.12650  -0.00000   0.00011  -0.00005   0.00006   2.12656
    A3        2.03016   0.00000  -0.00022   0.00009  -0.00013   2.03003
    A4        2.53706  -0.00001   0.00124  -0.00780  -0.00656   2.53050
    D1        1.93789   0.00001  -0.00049   0.00784   0.00735   1.94524
    D2       -1.20359   0.00001  -0.00049   0.00782   0.00733  -1.19626
    D3       -3.14149  -0.00000   0.00000  -0.00002  -0.00002  -3.14151
         Item               Value     Threshold  Converged?
 Maximum Force            0.000537     0.000002     NO 
 RMS     Force            0.000162     0.000001     NO 
 Maximum Displacement     0.016496     0.000006     NO 
 RMS     Displacement     0.008409     0.000004     NO 
 Predicted change in Energy=-4.753154D-07
 GradGradGradGradGradGradGradGradGradGradGradGradGradGradGradGradGradGrad

                          Input orientation:                          
 ---------------------------------------------------------------------
 Center     Atomic      Atomic             Coordinates (Angstroms)
 Number     Number       Type             X           Y           Z
 ---------------------------------------------------------------------
      1          6           0       -5.086672    0.155449    0.001225
      2          8           0       -4.091172    0.817183    0.010561
      3          1           0       -5.760171    0.104401    0.874069
      4          1           0       -5.382965   -0.438254   -0.880704
      5          8           0        4.380171    0.610741   -0.005152
 ---------------------------------------------------------------------
                    Distance matrix (angstroms):
                    1          2          3          4          5
     1  C    0.000000
     2  O    1.195407   0.000000
     3  H    1.103660   2.009792   0.000000
     4  H    1.103663   2.009777   1.875096   0.000000
     5  O    9.477787   8.473872  10.190974   9.858286   0.000000
 Stoichiometry    CH2O2
 Framework group  C1[X(CH2O2)]
 Deg. of freedom     9
 Full point group                 C1      NOp   1
 Largest Abelian subgroup         C1      NOp   1
 Largest concise Abelian subgroup C1      NOp   1
                         Standard orientation:                         
 ---------------------------------------------------------------------
 Center     Atomic      Atomic             Coordinates (Angstroms)
 Number     Number       Type             X           Y           Z
 ---------------------------------------------------------------------
      1          6           0        3.454844    0.232972    0.105875
      2          8           0        2.442508   -0.343517   -0.162144
      3          1           0        4.130977   -0.118109    0.904406
      4          1           0        3.764910    1.145746   -0.431503
      5          8           0       -6.020627    0.040334    0.023625
 ---------------------------------------------------------------------
 Rotational constants (GHZ):          93.1343460           0.5945306           0.5927401
 Standard basis: CC-pVTZ (5D, 7F)
 There are   135 symmetry adapted cartesian basis functions of A   symmetry.
 There are   118 symmetry adapted basis functions of A   symmetry.
   118 basis functions,   190 primitive gaussians,   135 cartesian basis functions
    12 alpha electrons       12 beta electrons
       nuclear repulsion energy        39.0186455479 Hartrees.
 NAtoms=    5 NActive=    5 NUniq=    5 SFac= 1.00D+00 NAtFMM=   60 NAOKFM=F Big=F
 Integral buffers will be    131072 words long.
 Raffenetti 2 integral format.
 Two-electron integral symmetry is turned on.
 One-electron integrals computed using PRISM.
 NBasis=   118 RedAO= T EigKep=  2.34D-03  NBF=   118
 NBsUse=   118 1.00D-06 EigRej= -1.00D+00 NBFU=   118
 Initial guess from the checkpoint file:  "/scratch/dinius.ab/QMscratch/Gau-439866.chk"
 B after Tr=    -0.000000    0.000000    0.000000
         Rot=    0.999984    0.005577   -0.000006   -0.000036 Ang=   0.64 deg.
 Keep R1 ints in memory in canonical form, NReq=43836800.
 Requested convergence on RMS density matrix=1.00D-08 within 900 cycles.
 Requested convergence on MAX density matrix=1.00D-06.
 Requested convergence on             energy=1.00D-06.
 No special actions if energy rises.
 SCF Done:  E(RM062X) =  -189.465558860     A.U. after    9 cycles
            NFock=  9  Conv=0.52D-08     -V/T= 2.0046
 Calling FoFJK, ICntrl=      2127 FMM=F ISym2X=0 I1Cent= 0 IOpClX= 0 NMat=1 NMatS=1 NMatT=0.
 ***** Axes restored to original set *****
 -------------------------------------------------------------------
 Center     Atomic                   Forces (Hartrees/Bohr)
 Number     Number              X              Y              Z
 -------------------------------------------------------------------
      1        6           0.000037411    0.000016207   -0.000016147
      2        8          -0.000024721   -0.000020044    0.000017281
      3        1          -0.000003680    0.000002744   -0.000003499
      4        1           0.000002275    0.000000068    0.000002380
      5        8          -0.000011284    0.000001025   -0.000000015
 -------------------------------------------------------------------
 Cartesian Forces:  Max     0.000037411 RMS     0.000015071

 GradGradGradGradGradGradGradGradGradGradGradGradGradGradGradGradGradGrad
 Berny optimization.
 Using GDIIS optimizer.
 FormGI is forming the generalized inverse of G from B-inverse, IUseBI=4.
 Internal  Forces:  Max     0.000040767 RMS     0.000013614
 Search for a local minimum.
 Step number   4 out of a maximum of  100
 All quantities printed in internal units (Hartrees-Bohrs-Radians)
 Swapping is turned off.
 Update second derivatives using D2CorX and points    1    2    3    4
 DE= -6.21D-07 DEPred=-4.75D-07 R= 1.31D+00
 Trust test= 1.31D+00 RLast= 1.72D-02 DXMaxT set to 5.05D-01
 The second derivative matrix:
                          R1        R2        R3        R4        A1
           R1           0.82992
           R2           0.03584   0.31972
           R3           0.03054   0.00456   0.31938
           R4          -0.00004  -0.00000  -0.00000  -0.00000
           A1           0.01715   0.00148  -0.01029  -0.00000   0.11156
           A2           0.02268  -0.01012   0.00153  -0.00000  -0.06936
           A3          -0.03983   0.00864   0.00876   0.00000  -0.04221
           A4           0.01038   0.00033   0.00031   0.00000   0.00011
           D1           0.00242   0.00004   0.00009  -0.00000  -0.00002
           D2          -0.00089  -0.00006  -0.00004  -0.00000  -0.00006
           D3          -0.00311  -0.00009  -0.00012   0.00000  -0.00004
                          A2        A3        A4        D1        D2
           A2           0.11164
           A3          -0.04228   0.08449
           A4          -0.00007  -0.00004   0.00001
           D1           0.00005  -0.00003   0.00017   0.00794
           D2           0.00011  -0.00005   0.00015  -0.00797   0.00786
           D3           0.00005  -0.00001  -0.00001  -0.01492   0.01484
                          D3
           D3           0.02789
 ITU=  0  1  1  0
     Eigenvalues ---   -0.00032  -0.00000   0.00012   0.04374   0.12170
     Eigenvalues ---    0.17991   0.31598   0.32170   0.83758
 Eigenvalue     2 is  -3.43D-06 should be greater than     0.000000 Eigenvector:
                          R4        D2        D1        A4        R1
   1                   -0.99996   0.00643   0.00642  -0.00148  -0.00005
                          D3        R3        A2        R2        A1
   1                    0.00001  -0.00000  -0.00000  -0.00000   0.00000
 Cosine: -0.985 <  0.840
 Cut down GDIIS permanently because of the cosine check. E 8
 DIIS coeff's:      0.94479      0.05521
 Cosine:  1.000 >  0.970
 Length:  0.945
 GDIIS step was calculated using  2 of the last  4 vectors.
 Iteration  1 RMS(Cart)=  0.00678299 RMS(Int)=  0.00001879
 Iteration  2 RMS(Cart)=  0.00002143 RMS(Int)=  0.00000000
 Iteration  3 RMS(Cart)=  0.00000000 RMS(Int)=  0.00000000
 Variable       Old X    -DE/DX   Delta X   Delta X   Delta X     New X
                                 (Linear)    (Quad)   (Total)
    R1        2.25899  -0.00004   0.00003  -0.00006  -0.00003   2.25896
    R2        2.08561  -0.00000  -0.00000   0.00001   0.00001   2.08562
    R3        2.08562  -0.00000  -0.00000  -0.00000  -0.00001   2.08561
    R4       16.01330  -0.00001   0.00067  -0.01123  -0.01057  16.00273
    A1        2.12659  -0.00000  -0.00000   0.00001   0.00000   2.12660
    A2        2.12656   0.00000  -0.00000   0.00001   0.00001   2.12657
    A3        2.03003  -0.00000   0.00001  -0.00002  -0.00001   2.03002
    A4        2.53050  -0.00000   0.00036  -0.00346  -0.00310   2.52740
    D1        1.94524   0.00001  -0.00041   0.01031   0.00990   1.95514
    D2       -1.19626   0.00001  -0.00040   0.01028   0.00988  -1.18639
    D3       -3.14151  -0.00000   0.00000  -0.00002  -0.00002  -3.14153
         Item               Value     Threshold  Converged?
 Maximum Force            0.000041     0.000002     NO 
 RMS     Force            0.000014     0.000001     NO 
 Maximum Displacement     0.014034     0.000006     NO 
 RMS     Displacement     0.006792     0.000004     NO 
 Predicted change in Energy=-3.532471D-07
 GradGradGradGradGradGradGradGradGradGradGradGradGradGradGradGradGradGrad

                          Input orientation:                          
 ---------------------------------------------------------------------
 Center     Atomic      Atomic             Coordinates (Angstroms)
 Number     Number       Type             X           Y           Z
 ---------------------------------------------------------------------
      1          6           0       -5.085167    0.155706    0.001597
      2          8           0       -4.091408    0.819958    0.014668
      3          1           0       -5.762929    0.104622    0.871138
      4          1           0       -5.375539   -0.440410   -0.880670
      5          8           0        4.374233    0.609644   -0.006733
 ---------------------------------------------------------------------
                    Distance matrix (angstroms):
                    1          2          3          4          5
     1  C    0.000000
     2  O    1.195391   0.000000
     3  H    1.103663   2.009783   0.000000
     4  H    1.103660   2.009764   1.875090   0.000000
     5  O    9.470289   8.468279  10.187628   9.845021   0.000000
 Stoichiometry    CH2O2
 Framework group  C1[X(CH2O2)]
 Deg. of freedom     9
 Full point group                 C1      NOp   1
 Largest Abelian subgroup         C1      NOp   1
 Largest concise Abelian subgroup C1      NOp   1
                         Standard orientation:                         
 ---------------------------------------------------------------------
 Center     Atomic      Atomic             Coordinates (Angstroms)
 Number     Number       Type             X           Y           Z
 ---------------------------------------------------------------------
      1          6           0        3.451797    0.234805    0.104787
      2          8           0        2.441297   -0.346068   -0.160611
      3          1           0        4.132499   -0.114434    0.900244
      4          1           0        3.755540    1.150002   -0.432073
      5          8           0       -6.016150    0.040519    0.023500
 ---------------------------------------------------------------------
 Rotational constants (GHZ):          92.6324070           0.5954261           0.5935905
 Standard basis: CC-pVTZ (5D, 7F)
 There are   135 symmetry adapted cartesian basis functions of A   symmetry.
 There are   118 symmetry adapted basis functions of A   symmetry.
   118 basis functions,   190 primitive gaussians,   135 cartesian basis functions
    12 alpha electrons       12 beta electrons
       nuclear repulsion energy        39.0244264974 Hartrees.
 NAtoms=    5 NActive=    5 NUniq=    5 SFac= 1.00D+00 NAtFMM=   60 NAOKFM=F Big=F
 Integral buffers will be    131072 words long.
 Raffenetti 2 integral format.
 Two-electron integral symmetry is turned on.
 One-electron integrals computed using PRISM.
 NBasis=   118 RedAO= T EigKep=  2.34D-03  NBF=   118
 NBsUse=   118 1.00D-06 EigRej= -1.00D+00 NBFU=   118
 Initial guess from the checkpoint file:  "/scratch/dinius.ab/QMscratch/Gau-439866.chk"
 B after Tr=    -0.000000   -0.000000    0.000000
         Rot=    0.999999    0.001528   -0.000013   -0.000024 Ang=   0.18 deg.
 Keep R1 ints in memory in canonical form, NReq=43836800.
 Requested convergence on RMS density matrix=1.00D-08 within 900 cycles.
 Requested convergence on MAX density matrix=1.00D-06.
 Requested convergence on             energy=1.00D-06.
 No special actions if energy rises.
 SCF Done:  E(RM062X) =  -189.465559223     A.U. after    8 cycles
            NFock=  8  Conv=0.80D-08     -V/T= 2.0046
 Calling FoFJK, ICntrl=      2127 FMM=F ISym2X=0 I1Cent= 0 IOpClX= 0 NMat=1 NMatS=1 NMatT=0.
 ***** Axes restored to original set *****
 -------------------------------------------------------------------
 Center     Atomic                   Forces (Hartrees/Bohr)
 Number     Number              X              Y              Z
 -------------------------------------------------------------------
      1        6           0.000014981    0.000005180   -0.000014076
      2        8          -0.000001831   -0.000006407    0.000018119
      3        1          -0.000003125    0.000001660   -0.000004395
      4        1           0.000001299   -0.000001484    0.000000349
      5        8          -0.000011324    0.000001052    0.000000003
 -------------------------------------------------------------------
 Cartesian Forces:  Max     0.000018119 RMS     0.000008113

 GradGradGradGradGradGradGradGradGradGradGradGradGradGradGradGradGradGrad
 Berny optimization.
 Using GDIIS optimizer.
 FormGI is forming the generalized inverse of G from B-inverse, IUseBI=4.
 Internal  Forces:  Max     0.000014076 RMS     0.000007153
 Search for a local minimum.
 Step number   5 out of a maximum of  100
 All quantities printed in internal units (Hartrees-Bohrs-Radians)
 Swapping is turned off.
 Update second derivatives using D2CorX and points    1    2    3    4    5
 DE= -3.63D-07 DEPred=-3.53D-07 R= 1.03D+00
 Trust test= 1.03D+00 RLast= 1.78D-02 DXMaxT set to 5.05D-01
 The second derivative matrix:
                          R1        R2        R3        R4        A1
           R1           1.10435
           R2           0.02347   0.31987
           R3           0.06097   0.00365   0.32220
           R4          -0.00055   0.00001  -0.00005  -0.00000
           A1           0.02413   0.00143  -0.00976  -0.00000   0.11167
           A2           0.02814  -0.01025   0.00207  -0.00001  -0.06947
           A3          -0.05227   0.00882   0.00769   0.00001  -0.04220
           A4           0.02174  -0.00006   0.00156  -0.00002  -0.00017
           D1           0.00037   0.00011  -0.00005   0.00000  -0.00011
           D2           0.00647  -0.00016   0.00058  -0.00001   0.00004
           D3           0.00578  -0.00025   0.00059  -0.00001   0.00015
                          A2        A3        A4        D1        D2
           A2           0.11161
           A3          -0.04215   0.08435
           A4           0.00009   0.00008   0.00111
           D1          -0.00009   0.00020   0.00006   0.00797
           D2           0.00006  -0.00010   0.00018  -0.00798   0.00806
           D3           0.00014  -0.00028   0.00012  -0.01495   0.01503
                          D3
           D3           0.02810
 ITU=  0  0  1  1  0
     Eigenvalues ---   -0.00000   0.00001   0.00067   0.04404   0.12073
     Eigenvalues ---    0.18011   0.31738   0.32208   1.11428
 Eigenvalue     1 is  -3.26D-06 should be greater than     0.000000 Eigenvector:
                          R4        D2        D1        A4        A3
   1                   -0.99272  -0.08521  -0.08515  -0.00066   0.00017
                          A1        A2        D3        R1        R3
   1                   -0.00009  -0.00008  -0.00006   0.00006  -0.00002
 Eigenvalue     2 is   5.36D-06 Eigenvector:
                          D1        D2        R4        A4        R1
   1                   -0.69819  -0.69737   0.11967   0.10901   0.00233
                          A3        D3        A2        A1        R2
   1                    0.00145   0.00078  -0.00076  -0.00069  -0.00032
 DIIS coeff's:      2.55154     -1.63737      0.08583
 Cosine:  0.999 >  0.840
 Length:  2.381
 GDIIS step was calculated using  3 of the last  3 vectors.
 Iteration  1 RMS(Cart)=  0.01570373 RMS(Int)=  0.00009504
 Iteration  2 RMS(Cart)=  0.00010660 RMS(Int)=  0.00000001
 Iteration  3 RMS(Cart)=  0.00000001 RMS(Int)=  0.00000000
 Variable       Old X    -DE/DX   Delta X   Delta X   Delta X     New X
                                 (Linear)    (Quad)   (Total)
    R1        2.25896  -0.00001  -0.00000  -0.00008  -0.00008   2.25888
    R2        2.08562  -0.00000   0.00001  -0.00000   0.00001   2.08563
    R3        2.08561  -0.00000  -0.00001   0.00001  -0.00000   2.08561
    R4       16.00273  -0.00001  -0.01536  -0.01135  -0.02672  15.97601
    A1        2.12660  -0.00000   0.00000   0.00002   0.00002   2.12662
    A2        2.12657   0.00000   0.00001   0.00004   0.00004   2.12661
    A3        2.03002  -0.00000  -0.00001  -0.00006  -0.00007   2.02995
    A4        2.52740  -0.00000  -0.00425  -0.00029  -0.00454   2.52286
    D1        1.95514   0.00001   0.01473   0.01049   0.02522   1.98036
    D2       -1.18639   0.00001   0.01470   0.01047   0.02517  -1.16122
    D3       -3.14153  -0.00000  -0.00003  -0.00001  -0.00005  -3.14158
         Item               Value     Threshold  Converged?
 Maximum Force            0.000014     0.000002     NO 
 RMS     Force            0.000007     0.000001     NO 
 Maximum Displacement     0.031592     0.000006     NO 
 RMS     Displacement     0.015732     0.000004     NO 
 Predicted change in Energy=-8.376547D-07
 GradGradGradGradGradGradGradGradGradGradGradGradGradGradGradGradGradGrad

                          Input orientation:                          
 ---------------------------------------------------------------------
 Center     Atomic      Atomic             Coordinates (Angstroms)
 Number     Number       Type             X           Y           Z
 ---------------------------------------------------------------------
      1          6           0       -5.081761    0.156187    0.002514
      2          8           0       -4.090511    0.823836    0.025369
      3          1           0       -5.770506    0.106671    0.863478
      4          1           0       -5.358821   -0.444827   -0.880710
      5          8           0        4.360789    0.607653   -0.010650
 ---------------------------------------------------------------------
                    Distance matrix (angstroms):
                    1          2          3          4          5
     1  C    0.000000
     2  O    1.195347   0.000000
     3  H    1.103667   2.009760   0.000000
     4  H    1.103659   2.009750   1.875053   0.000000
     5  O    9.453346   8.454141  10.181268   9.815067   0.000000
 Stoichiometry    CH2O2
 Framework group  C1[X(CH2O2)]
 Deg. of freedom     9
 Full point group                 C1      NOp   1
 Largest Abelian subgroup         C1      NOp   1
 Largest concise Abelian subgroup C1      NOp   1
                         Standard orientation:                         
 ---------------------------------------------------------------------
 Center     Atomic      Atomic             Coordinates (Angstroms)
 Number     Number       Type             X           Y           Z
 ---------------------------------------------------------------------
      1          6           0        3.445338    0.237575    0.102969
      2          8           0        2.437544   -0.349824   -0.158121
      3          1           0        4.137750   -0.113932    0.887245
      4          1           0        3.734851    1.161415   -0.426904
      5          8           0       -6.005622    0.040707    0.023352
 ---------------------------------------------------------------------
 Rotational constants (GHZ):          91.9843412           0.5975356           0.5956073
 Standard basis: CC-pVTZ (5D, 7F)
 There are   135 symmetry adapted cartesian basis functions of A   symmetry.
 There are   118 symmetry adapted basis functions of A   symmetry.
   118 basis functions,   190 primitive gaussians,   135 cartesian basis functions
    12 alpha electrons       12 beta electrons
       nuclear repulsion energy        39.0383192552 Hartrees.
 NAtoms=    5 NActive=    5 NUniq=    5 SFac= 1.00D+00 NAtFMM=   60 NAOKFM=F Big=F
 Integral buffers will be    131072 words long.
 Raffenetti 2 integral format.
 Two-electron integral symmetry is turned on.
 One-electron integrals computed using PRISM.
 NBasis=   118 RedAO= T EigKep=  2.34D-03  NBF=   118
 NBsUse=   118 1.00D-06 EigRej= -1.00D+00 NBFU=   118
 Initial guess from the checkpoint file:  "/scratch/dinius.ab/QMscratch/Gau-439866.chk"
 B after Tr=     0.000000    0.000000   -0.000000
         Rot=    1.000000    0.000535   -0.000037   -0.000045 Ang=   0.06 deg.
 ExpMin= 1.03D-01 ExpMax= 1.53D+04 ExpMxC= 5.22D+02 IAcc=2 IRadAn=         4 AccDes= 0.00D+00
 Harris functional with IExCor= 1009 and IRadAn=       4 diagonalized for initial guess.
 HarFok:  IExCor= 1009 AccDes= 0.00D+00 IRadAn=         4 IDoV= 1 UseB2=F ITyADJ=14
 ICtDFT=  3500011 ScaDFX=  1.000000  1.000000  1.000000  1.000000
 FoFCou: FMM=F IPFlag=           0 FMFlag=      100000 FMFlg1=           0
         NFxFlg=           0 DoJE=T BraDBF=F KetDBF=T FulRan=T
         wScrn=  0.000000 ICntrl=       500 IOpCl=  0 I1Cent=   200000004 NGrid=           0
         NMat0=    1 NMatS0=      1 NMatT0=    0 NMatD0=    1 NMtDS0=    0 NMtDT0=    0
 Petite list used in FoFCou.
 Keep R1 ints in memory in canonical form, NReq=43836800.
 Requested convergence on RMS density matrix=1.00D-08 within 900 cycles.
 Requested convergence on MAX density matrix=1.00D-06.
 Requested convergence on             energy=1.00D-06.
 No special actions if energy rises.
 Integral accuracy reduced to 1.0D-05 until final iterations.
 Initial convergence to 1.0D-05 achieved.  Increase integral accuracy.
 SCF Done:  E(RM062X) =  -189.465559931     A.U. after   11 cycles
            NFock= 11  Conv=0.81D-08     -V/T= 2.0046
 Calling FoFJK, ICntrl=      2127 FMM=F ISym2X=0 I1Cent= 0 IOpClX= 0 NMat=1 NMatS=1 NMatT=0.
 ***** Axes restored to original set *****
 -------------------------------------------------------------------
 Center     Atomic                   Forces (Hartrees/Bohr)
 Number     Number              X              Y              Z
 -------------------------------------------------------------------
      1        6          -0.000048720   -0.000030654   -0.000011414
      2        8           0.000060868    0.000031906    0.000018186
      3        1          -0.000002073   -0.000000966   -0.000001512
      4        1           0.000001359   -0.000001384   -0.000005317
      5        8          -0.000011435    0.000001098    0.000000057
 -------------------------------------------------------------------
 Cartesian Forces:  Max     0.000060868 RMS     0.000024040

 GradGradGradGradGradGradGradGradGradGradGradGradGradGradGradGradGradGrad
 Berny optimization.
 Using GDIIS optimizer.
 FormGI is forming the generalized inverse of G from B-inverse, IUseBI=4.
 Internal  Forces:  Max     0.000059491 RMS     0.000018687
 Search for a local minimum.
 Step number   6 out of a maximum of  100
 All quantities printed in internal units (Hartrees-Bohrs-Radians)
 Swapping is turned off.
 Update second derivatives using D2CorX and points    1    2    3    4    5
                                                      6
 DE= -7.09D-07 DEPred=-8.38D-07 R= 8.46D-01
 Trust test= 8.46D-01 RLast= 4.48D-02 DXMaxT set to 5.05D-01
 The second derivative matrix:
                          R1        R2        R3        R4        A1
           R1           0.40852
           R2           0.02208   0.31965
           R3           0.02928   0.00357   0.32129
           R4           0.00021   0.00002  -0.00003  -0.00000
           A1           0.00181   0.00144  -0.01104   0.00003   0.11114
           A2           0.01623  -0.00987   0.00101   0.00002  -0.06979
           A3          -0.01804   0.00843   0.01003  -0.00005  -0.04135
           A4          -0.00009  -0.00014   0.00111  -0.00001  -0.00122
           D1           0.00100   0.00016  -0.00014   0.00000  -0.00001
           D2          -0.00244  -0.00021   0.00028  -0.00000  -0.00023
           D3          -0.00326  -0.00036   0.00040  -0.00001  -0.00020
                          A2        A3        A4        D1        D2
           A2           0.11121
           A3          -0.04142   0.08277
           A4          -0.00081   0.00203   0.00089
           D1          -0.00007   0.00008  -0.00001   0.00801
           D2          -0.00020   0.00042   0.00001  -0.00795   0.00803
           D3          -0.00012   0.00032   0.00002  -0.01495   0.01497
                          D3
           D3           0.02805
 ITU=  0  0  0  1  1  0
     Eigenvalues ---   -0.00000   0.00007   0.00083   0.04397   0.12071
     Eigenvalues ---    0.17956   0.31312   0.31782   0.42348
 Eigenvalue     1 is  -3.35D-06 should be greater than     0.000000 Eigenvector:
                          R4        A4        D1        D2        R1
   1                    0.99987   0.01300  -0.00682  -0.00673  -0.00055
                          A3        R3        D3        A1        A2
   1                    0.00011   0.00010   0.00009  -0.00009  -0.00003
 Eigenvalue     2 is   6.76D-05 Eigenvector:
                          D1        D2        A4        R4        A3
   1                    0.70708   0.70700   0.00975   0.00945  -0.00264
                          R1        A1        A2        R3        D3
   1                    0.00235   0.00136   0.00129  -0.00041  -0.00008
 Cut down GDIIS temporarily because of the coefficient check. E 2
 DIIS coeff's:      1.37756     -0.37756
 Cosine:  0.995 >  0.970
 Length:  1.933
 GDIIS step was calculated using  2 of the last  4 vectors.
 Iteration  1 RMS(Cart)=  0.01007577 RMS(Int)=  0.00003661
 Iteration  2 RMS(Cart)=  0.00005025 RMS(Int)=  0.00000000
 Iteration  3 RMS(Cart)=  0.00000000 RMS(Int)=  0.00000000
 Variable       Old X    -DE/DX   Delta X   Delta X   Delta X     New X
                                 (Linear)    (Quad)   (Total)
    R1        2.25888   0.00006  -0.00003   0.00025   0.00022   2.25910
    R2        2.08563   0.00000   0.00000  -0.00001  -0.00001   2.08562
    R3        2.08561   0.00000  -0.00000  -0.00002  -0.00002   2.08560
    R4       15.97601  -0.00001  -0.01009  -0.01150  -0.02158  15.95443
    A1        2.12662  -0.00000   0.00001   0.00002   0.00003   2.12665
    A2        2.12661   0.00000   0.00002   0.00001   0.00003   2.12664
    A3        2.02995   0.00000  -0.00003  -0.00003  -0.00006   2.02990
    A4        2.52286   0.00000  -0.00171   0.00255   0.00084   2.52370
    D1        1.98036   0.00001   0.00952   0.00804   0.01757   1.99792
    D2       -1.16122   0.00001   0.00950   0.00808   0.01758  -1.14364
    D3       -3.14158   0.00000  -0.00002   0.00003   0.00001  -3.14156
         Item               Value     Threshold  Converged?
 Maximum Force            0.000059     0.000002     NO 
 RMS     Force            0.000019     0.000001     NO 
 Maximum Displacement     0.017370     0.000006     NO 
 RMS     Displacement     0.010064     0.000004     NO 
 Predicted change in Energy=-5.381666D-07
 GradGradGradGradGradGradGradGradGradGradGradGradGradGradGradGradGradGrad

                          Input orientation:                          
 ---------------------------------------------------------------------
 Center     Atomic      Atomic             Coordinates (Angstroms)
 Number     Number       Type             X           Y           Z
 ---------------------------------------------------------------------
      1          6           0       -5.079624    0.156308    0.003104
      2          8           0       -4.087674    0.822844    0.033012
      3          1           0       -5.776045    0.109870    0.858040
      4          1           0       -5.349629   -0.446671   -0.880953
      5          8           0        4.352163    0.607169   -0.013203
 ---------------------------------------------------------------------
                    Distance matrix (angstroms):
                    1          2          3          4          5
     1  C    0.000000
     2  O    1.195462   0.000000
     3  H    1.103664   2.009875   0.000000
     4  H    1.103651   2.009859   1.875011   0.000000
     5  O    9.442571   8.442719  10.177768   9.797364   0.000000
 Stoichiometry    CH2O2
 Framework group  C1[X(CH2O2)]
 Deg. of freedom     9
 Full point group                 C1      NOp   1
 Largest Abelian subgroup         C1      NOp   1
 Largest concise Abelian subgroup C1      NOp   1
                         Standard orientation:                         
 ---------------------------------------------------------------------
 Center     Atomic      Atomic             Coordinates (Angstroms)
 Number     Number       Type             X           Y           Z
 ---------------------------------------------------------------------
      1          6           0        3.441934    0.237408    0.102646
      2          8           0        2.433508   -0.349431   -0.157788
      3          1           0        4.142460   -0.123042    0.875570
      4          1           0        3.723888    1.169618   -0.416518
      5          8           0       -5.998252    0.040552    0.023422
 ---------------------------------------------------------------------
 Rotational constants (GHZ):          92.2511654           0.5990095           0.5970419
 Standard basis: CC-pVTZ (5D, 7F)
 There are   135 symmetry adapted cartesian basis functions of A   symmetry.
 There are   118 symmetry adapted basis functions of A   symmetry.
   118 basis functions,   190 primitive gaussians,   135 cartesian basis functions
    12 alpha electrons       12 beta electrons
       nuclear repulsion energy        39.0454877198 Hartrees.
 NAtoms=    5 NActive=    5 NUniq=    5 SFac= 1.00D+00 NAtFMM=   60 NAOKFM=F Big=F
 Integral buffers will be    131072 words long.
 Raffenetti 2 integral format.
 Two-electron integral symmetry is turned on.
 One-electron integrals computed using PRISM.
 NBasis=   118 RedAO= T EigKep=  2.34D-03  NBF=   118
 NBsUse=   118 1.00D-06 EigRej= -1.00D+00 NBFU=   118
 Initial guess from the checkpoint file:  "/scratch/dinius.ab/QMscratch/Gau-439866.chk"
 B after Tr=     0.000000    0.000000    0.000000
         Rot=    0.999995   -0.003088   -0.000030   -0.000010 Ang=  -0.35 deg.
 Keep R1 ints in memory in canonical form, NReq=43836800.
 Requested convergence on RMS density matrix=1.00D-08 within 900 cycles.
 Requested convergence on MAX density matrix=1.00D-06.
 Requested convergence on             energy=1.00D-06.
 No special actions if energy rises.
 SCF Done:  E(RM062X) =  -189.465560100     A.U. after    9 cycles
            NFock=  9  Conv=0.67D-08     -V/T= 2.0046
 Calling FoFJK, ICntrl=      2127 FMM=F ISym2X=0 I1Cent= 0 IOpClX= 0 NMat=1 NMatS=1 NMatT=0.
 ***** Axes restored to original set *****
 -------------------------------------------------------------------
 Center     Atomic                   Forces (Hartrees/Bohr)
 Number     Number              X              Y              Z
 -------------------------------------------------------------------
      1        6           0.000106617    0.000071733   -0.000005498
      2        8          -0.000110459   -0.000082751    0.000013332
      3        1           0.000007239    0.000003505    0.000001460
      4        1           0.000008143    0.000006416   -0.000009387
      5        8          -0.000011540    0.000001098    0.000000093
 -------------------------------------------------------------------
 Cartesian Forces:  Max     0.000110459 RMS     0.000049103

 GradGradGradGradGradGradGradGradGradGradGradGradGradGradGradGradGradGrad
 Berny optimization.
 Using GDIIS optimizer.
 FormGI is forming the generalized inverse of G from B-inverse, IUseBI=4.
 Internal  Forces:  Max     0.000146671 RMS     0.000044800
 Search for a local minimum.
 Step number   7 out of a maximum of  100
 All quantities printed in internal units (Hartrees-Bohrs-Radians)
 Swapping is turned off.
 Update second derivatives using D2CorX and points    1    2    3    4    5
                                                      6    7
 DE= -1.69D-07 DEPred=-5.38D-07 R= 3.14D-01
 Trust test= 3.14D-01 RLast= 3.29D-02 DXMaxT set to 5.05D-01
 The second derivative matrix:
                          R1        R2        R3        R4        A1
           R1           0.84282
           R2           0.03480   0.31976
           R3           0.02909   0.00358   0.32113
           R4           0.00002   0.00002  -0.00004  -0.00000
           A1           0.02400   0.00206  -0.01096   0.00003   0.11238
           A2           0.02115  -0.00923   0.00115   0.00000  -0.06963
           A3          -0.04515   0.00717   0.00981  -0.00003  -0.04276
           A4          -0.00211  -0.00023   0.00115  -0.00002  -0.00146
           D1           0.00121   0.00021  -0.00018   0.00000   0.00008
           D2           0.00006  -0.00023   0.00021  -0.00000   0.00003
           D3          -0.00108  -0.00041   0.00037  -0.00000  -0.00004
                          A2        A3        A4        D1        D2
           A2           0.11004
           A3          -0.04042   0.08317
           A4          -0.00077   0.00223   0.00100
           D1          -0.00016   0.00009  -0.00004   0.00802
           D2           0.00002  -0.00005  -0.00006  -0.00791   0.00804
           D3           0.00017  -0.00013  -0.00001  -0.01493   0.01495
                          D3
           D3           0.02801
 ITU=  0  0  0  0  1  1  0
     Eigenvalues ---   -0.00000   0.00011   0.00094   0.04395   0.11889
     Eigenvalues ---    0.17988   0.31749   0.32234   0.85076
 Eigenvalue     1 is  -3.39D-06 should be greater than     0.000000 Eigenvector:
                          R4        A4        D1        D2        D3
   1                    0.99987   0.01441  -0.00533  -0.00525   0.00008
                          R3        R2        A2        A1        A3
   1                    0.00007  -0.00005   0.00005  -0.00003  -0.00002
 Cut down GDIIS temporarily because of the coefficient check. E 2
 DIIS coeff's:      0.90854      1.02301     -0.93155
 Cosine:  0.948 >  0.840
 Length:  3.267
 GDIIS step was calculated using  3 of the last  5 vectors.
 Iteration  1 RMS(Cart)=  0.01563004 RMS(Int)=  0.00008460
 Iteration  2 RMS(Cart)=  0.00011718 RMS(Int)=  0.00000001
 Iteration  3 RMS(Cart)=  0.00000001 RMS(Int)=  0.00000000
 Variable       Old X    -DE/DX   Delta X   Delta X   Delta X     New X
                                 (Linear)    (Quad)   (Total)
    R1        2.25910  -0.00015  -0.00010  -0.00006  -0.00016   2.25893
    R2        2.08562  -0.00000   0.00001   0.00001   0.00002   2.08564
    R3        2.08560   0.00000   0.00000   0.00000   0.00000   2.08560
    R4       15.95443  -0.00001  -0.02292  -0.01162  -0.03453  15.91989
    A1        2.12665  -0.00001   0.00002  -0.00001   0.00001   2.12666
    A2        2.12664  -0.00000   0.00004   0.00001   0.00005   2.12669
    A3        2.02990   0.00001  -0.00006  -0.00001  -0.00006   2.02983
    A4        2.52370   0.00000  -0.00430   0.00552   0.00121   2.52491
    D1        1.99792   0.00001   0.02188   0.00494   0.02682   2.02474
    D2       -1.14364   0.00001   0.02184   0.00495   0.02679  -1.11685
    D3       -3.14156  -0.00000  -0.00004   0.00002  -0.00003  -3.14159
         Item               Value     Threshold  Converged?
 Maximum Force            0.000147     0.000002     NO 
 RMS     Force            0.000045     0.000001     NO 
 Maximum Displacement     0.026725     0.000006     NO 
 RMS     Displacement     0.015602     0.000004     NO 
 Predicted change in Energy=-6.807932D-07
 GradGradGradGradGradGradGradGradGradGradGradGradGradGradGradGradGradGrad

                          Input orientation:                          
 ---------------------------------------------------------------------
 Center     Atomic      Atomic             Coordinates (Angstroms)
 Number     Number       Type             X           Y           Z
 ---------------------------------------------------------------------
      1          6           0       -5.076093    0.156522    0.004000
      2          8           0       -4.083319    0.821104    0.044674
      3          1           0       -5.784074    0.114845    0.849646
      4          1           0       -5.335487   -0.449367   -0.881247
      5          8           0        4.338163    0.606416   -0.017073
 ---------------------------------------------------------------------
                    Distance matrix (angstroms):
                    1          2          3          4          5
     1  C    0.000000
     2  O    1.195376   0.000000
     3  H    1.103672   2.009813   0.000000
     4  H    1.103652   2.009813   1.874982   0.000000
     5  O    9.425024   8.424445  10.171162   9.769390   0.000000
 Stoichiometry    CH2O2
 Framework group  C1[X(CH2O2)]
 Deg. of freedom     9
 Full point group                 C1      NOp   1
 Largest Abelian subgroup         C1      NOp   1
 Largest concise Abelian subgroup C1      NOp   1
                         Standard orientation:                         
 ---------------------------------------------------------------------
 Center     Atomic      Atomic             Coordinates (Angstroms)
 Number     Number       Type             X           Y           Z
 ---------------------------------------------------------------------
      1          6           0        3.436285    0.237219    0.101925
      2          8           0        2.427157   -0.348937   -0.156931
      3          1           0        4.149021   -0.135833    0.857525
      4          1           0        3.706858    1.181404   -0.401418
      5          8           0       -5.986356    0.040326    0.023474
 ---------------------------------------------------------------------
 Rotational constants (GHZ):          92.6793803           0.6014011           0.5993716
 Standard basis: CC-pVTZ (5D, 7F)
 There are   135 symmetry adapted cartesian basis functions of A   symmetry.
 There are   118 symmetry adapted basis functions of A   symmetry.
   118 basis functions,   190 primitive gaussians,   135 cartesian basis functions
    12 alpha electrons       12 beta electrons
       nuclear repulsion energy        39.0623239215 Hartrees.
 NAtoms=    5 NActive=    5 NUniq=    5 SFac= 1.00D+00 NAtFMM=   60 NAOKFM=F Big=F
 Integral buffers will be    131072 words long.
 Raffenetti 2 integral format.
 Two-electron integral symmetry is turned on.
[...]
 GradGradGradGradGradGradGradGradGradGradGradGradGradGradGradGradGradGrad

                          Input orientation:                          
 ---------------------------------------------------------------------
 Center     Atomic      Atomic             Coordinates (Angstroms)
 Number     Number       Type             X           Y           Z
 ---------------------------------------------------------------------
      1          6           0       -3.776124    0.237822   -0.089813
      2          8           0       -2.372520    0.162474   -0.186575
      3          1           0       -4.150655    0.543946    0.926744
      4          1           0       -4.380355   -0.026354   -0.872211
      5          8           0       -1.261156    0.331632    0.221856
 ---------------------------------------------------------------------
                    Distance matrix (angstroms):
                    1          2          3          4          5
     1  C    0.000000
     2  O    1.408952   0.000000
     3  H    1.125777   2.132314   0.000000
     4  H    1.023245   2.130060   1.901116   0.000000
     5  O    2.535942   1.196060   2.981803   3.324836   0.000000
 Stoichiometry    CH2O2
 Framework group  C1[X(CH2O2)]
 Deg. of freedom     9
 Full point group                 C1      NOp   1
 Largest Abelian subgroup         C1      NOp   1
 Largest concise Abelian subgroup C1      NOp   1
                         Standard orientation:                         
 ---------------------------------------------------------------------
 Center     Atomic      Atomic             Coordinates (Angstroms)
 Number     Number       Type             X           Y           Z
 ---------------------------------------------------------------------
      1          6           0        1.266468   -0.061728   -0.013932
      2          8           0       -0.115669    0.209748    0.019848
      3          1           0        1.520525   -1.157554    0.030722
      4          1           0        1.958807    0.691720   -0.017626
      5          8           0       -1.269099   -0.105222   -0.011036
 ---------------------------------------------------------------------
 Rotational constants (GHZ):         182.9486092           9.8751398           9.3732274
 Standard basis: CC-pVTZ (5D, 7F)
 There are   135 symmetry adapted cartesian basis functions of A   symmetry.
 There are   118 symmetry adapted basis functions of A   symmetry.
   118 basis functions,   190 primitive gaussians,   135 cartesian basis functions
    12 alpha electrons       12 beta electrons
       nuclear repulsion energy        69.2273761925 Hartrees.
 NAtoms=    5 NActive=    5 NUniq=    5 SFac= 1.00D+00 NAtFMM=   60 NAOKFM=F Big=F
 Integral buffers will be    131072 words long.
 Raffenetti 2 integral format.
 Two-electron integral symmetry is turned on.
 One-electron integrals computed using PRISM.
 NBasis=   118 RedAO= T EigKep=  1.73D-03  NBF=   118
 NBsUse=   118 1.00D-06 EigRej= -1.00D+00 NBFU=   118
 Initial guess from the checkpoint file:  "/scratch/dinius.ab/QMscratch/Gau-439866.chk"
 B after Tr=     0.000000   -0.000000   -0.000000
         Rot=    0.999875   -0.015497   -0.000792   -0.002867 Ang=  -1.81 deg.
 ExpMin= 1.03D-01 ExpMax= 1.53D+04 ExpMxC= 5.22D+02 IAcc=2 IRadAn=         4 AccDes= 0.00D+00
 Harris functional with IExCor= 1009 and IRadAn=       4 diagonalized for initial guess.
 HarFok:  IExCor= 1009 AccDes= 0.00D+00 IRadAn=         4 IDoV= 1 UseB2=F ITyADJ=14
 ICtDFT=  3500011 ScaDFX=  1.000000  1.000000  1.000000  1.000000
 FoFCou: FMM=F IPFlag=           0 FMFlag=      100000 FMFlg1=           0
         NFxFlg=           0 DoJE=T BraDBF=F KetDBF=T FulRan=T
         wScrn=  0.000000 ICntrl=       500 IOpCl=  0 I1Cent=   200000004 NGrid=           0
         NMat0=    1 NMatS0=      1 NMatT0=    0 NMatD0=    1 NMtDS0=    0 NMtDT0=    0
 Petite list used in FoFCou.
 Keep R1 ints in memory in canonical form, NReq=43836800.
 Requested convergence on RMS density matrix=1.00D-08 within 900 cycles.
 Requested convergence on MAX density matrix=1.00D-06.
 Requested convergence on             energy=1.00D-06.
 No special actions if energy rises.
 Integral accuracy reduced to 1.0D-05 until final iterations.
 Initial convergence to 1.0D-05 achieved.  Increase integral accuracy.
 SCF Done:  E(RM062X) =  -189.488854927     A.U. after   18 cycles
            NFock= 18  Conv=0.15D-08     -V/T= 2.0053
 Calling FoFJK, ICntrl=      2127 FMM=F ISym2X=0 I1Cent= 0 IOpClX= 0 NMat=1 NMatS=1 NMatT=0.
 ***** Axes restored to original set *****
 -------------------------------------------------------------------
 Center     Atomic                   Forces (Hartrees/Bohr)
 Number     Number              X              Y              Z
 -------------------------------------------------------------------
      1        6           0.134599566    0.032845025    0.114120271
      2        8          -0.218939422   -0.038835163   -0.122642789
      3        1           0.005426202   -0.005369769   -0.025781084
      4        1          -0.007757882   -0.016760169   -0.043610461
      5        8           0.086671536    0.028120076    0.077914064
 -------------------------------------------------------------------
 Cartesian Forces:  Max     0.218939422 RMS     0.087194177

 GradGradGradGradGradGradGradGradGradGradGradGradGradGradGradGradGradGrad
 Berny optimization.
 Using GDIIS optimizer.
 FormGI is forming the generalized inverse of G from B-inverse, IUseBI=4.
 Internal  Forces:  Max     0.128120039 RMS     0.062391073
 Search for a local minimum.
 Step number 100 out of a maximum of  100
 All quantities printed in internal units (Hartrees-Bohrs-Radians)
 Swapping is turned off.
 Update second derivatives using D2CorX and points   97   99  100
 DE=  4.79D-03 DEPred=-1.03D-01 R=-4.65D-02
 Trust test=-4.65D-02 RLast= 9.12D-01 DXMaxT set to 4.46D-01
 The second derivative matrix:
                          R1        R2        R3        R4        A1
           R1          -5.51581
           R2          -0.29016   0.29779
           R3           0.36303   0.03415   0.84249
           R4          -1.87275  -0.24765   0.13705  -1.12619
           A1           0.19985   0.03576   0.09289   0.02431   0.15657
           A2          -0.43560  -0.07403   0.02216  -0.19714  -0.08259
           A3           0.20784   0.03562  -0.09541   0.16806  -0.06886
           A4          -2.64008  -0.17357   0.25315  -1.13735   0.07787
           D1          -0.01493  -0.00531   0.03434   0.03817   0.00204
           D2           0.00336   0.00002  -0.02677  -0.06405  -0.00084
           D3           0.13578   0.00444  -0.01536  -0.04338   0.00639
                          A2        A3        A4        D1        D2
           A2           0.08664
           A3          -0.00800   0.07601
           A4          -0.19831   0.11145  -1.10337
           D1           0.00397  -0.00491   0.00672   0.01291
           D2          -0.00717   0.00714  -0.02313  -0.01115   0.00850
           D3          -0.00513  -0.00136   0.03789  -0.02067   0.01767
                          D3
           D3           0.03426
 ITU= -1  1 -1  1  1 -1  1 -1  0 -1  1  1
     Eigenvalues ---   -7.59369  -0.52467   0.00000   0.07122   0.12193
     Eigenvalues ---    0.19623   0.23489   0.36122   0.90135
 Eigenvalue     3 is   1.11D-15 Eigenvector:
                          D1        D2        R4        A3        R1
   1                   -0.70870  -0.70476   0.02866  -0.00989  -0.00670
                          A1        R3        A4        A2        D3
   1                    0.00589   0.00392  -0.00384   0.00378   0.00346
 Cosine:  0.946 <  0.970
 Cut down GDIIS temporarily because of the cosine check. E 6
     Eigenvalues ---   -7.59369  -0.52467   0.00000   0.07122   0.12193
     Eigenvalues ---    0.19623   0.23489   0.36122   0.90135
 Eigenvalue     1 is  -7.59D+00 should be greater than     0.000000 Eigenvector:
                          R1        A4        R4        A2        R3
   1                    0.84684   0.40764   0.32303   0.06619  -0.05448
                          R2        A3        A1        D3        D1
   1                    0.05140  -0.03841  -0.02730  -0.01072   0.00473
 Eigenvalue     2 is  -5.25D-01 should be greater than     0.000000 Eigenvector:
                          R4        R1        A4        D3        R2
   1                    0.84474  -0.41866   0.16712   0.15492   0.14941
                          A3        D2        A1        D1        A2
   1                   -0.12754   0.09978   0.06119  -0.05805   0.05701
 Eigenvalue     3 is   1.11D-15 Eigenvector:
                          D1        D2        R4        A3        R1
   1                   -0.70870  -0.70476   0.02866  -0.00989  -0.00670
                          A1        R3        A4        A2        D3
   1                    0.00589   0.00392  -0.00384   0.00378   0.00346
 Quadratic step=5.828D-01 exceeds max=4.460D-01 adjusted using Lamda=-6.564D-02.
 Angle between NR and scaled steps=   7.34 degrees.
 Angle between quadratic step and forces=  39.50 degrees.
 Linear search not attempted -- option 19 set.
 Iteration  1 RMS(Cart)=  0.08264692 RMS(Int)=  0.03852050
 Iteration  2 RMS(Cart)=  0.03113327 RMS(Int)=  0.00178227
 Iteration  3 RMS(Cart)=  0.00053422 RMS(Int)=  0.00175644
 Iteration  4 RMS(Cart)=  0.00000015 RMS(Int)=  0.00175644
 Variable       Old X    -DE/DX   Delta X   Delta X   Delta X     New X
                                 (Linear)    (Quad)   (Total)
    R1        2.66253  -0.12812   0.00000  -0.01974  -0.01974   2.64280
    R2        2.12741  -0.02654   0.00000  -0.06135  -0.06135   2.06606
    R3        1.93365   0.04225   0.00000   0.06281   0.06281   1.99647
    R4        2.26023   0.11112   0.00000   0.33478   0.33478   2.59500
    A1        1.99104   0.01900   0.00000   0.02712   0.02619   2.01722
    A2        2.11993  -0.03012   0.00000  -0.11039  -0.11131   2.00862
    A3        2.17025   0.01117   0.00000   0.08800   0.08704   2.25729
    A4        2.67843  -0.10077   0.00000  -0.22129  -0.22129   2.45715
    D1       -0.16024   0.00382   0.00000   0.04703   0.04364  -0.11659
    D2        3.04600   0.00239   0.00000  -0.03424  -0.03085   3.01515
    D3       -3.07481   0.00028   0.00000  -0.07543  -0.07832   3.13006
         Item               Value     Threshold  Converged?
 Maximum Force            0.128120     0.000002     NO 
 RMS     Force            0.062391     0.000001     NO 
 Maximum Displacement     0.195586     0.000006     NO 
 RMS     Displacement     0.107456     0.000004     NO 
 Predicted change in Energy=-6.720406D-02
 Optimization stopped.
    -- Number of steps exceeded,  NStep= 100
    -- Flag reset to prevent archiving.
                           ----------------------------
                           ! Non-Optimized Parameters !
                           ! (Angstroms and Degrees)  !
 --------------------------                            --------------------------
 ! Name  Definition              Value          Derivative Info.                !
 --------------------------------------------------------------------------------
 ! R1    R(1,2)                  1.3985         -DE/DX =   -0.1281              !
 ! R2    R(1,3)                  1.0933         -DE/DX =   -0.0265              !
 ! R3    R(1,4)                  1.0565         -DE/DX =    0.0423              !
 ! R4    R(2,5)                  1.3732         -DE/DX =    0.1111              !
 ! A1    A(2,1,3)              115.5784         -DE/DX =    0.019               !
 ! A2    A(2,1,4)              115.0852         -DE/DX =   -0.0301              !
 ! A3    A(3,1,4)              129.3335         -DE/DX =    0.0112              !
 ! A4    A(1,2,5)              140.7841         -DE/DX =   -0.1008              !
 ! D1    D(3,1,2,5)             -6.6803         -DE/DX =    0.0038              !
 ! D2    D(4,1,2,5)            172.7555         -DE/DX =    0.0024              !
 ! D3    D(2,1,3,4)            179.3394         -DE/DX =    0.0003              !
 --------------------------------------------------------------------------------
 GradGradGradGradGradGradGradGradGradGradGradGradGradGradGradGradGradGrad

                          Input orientation:                          
 ---------------------------------------------------------------------
 Center     Atomic      Atomic             Coordinates (Angstroms)
 Number     Number       Type             X           Y           Z
 ---------------------------------------------------------------------
      1          6           0       -3.776124    0.237822   -0.089813
      2          8           0       -2.372520    0.162474   -0.186575
      3          1           0       -4.150655    0.543946    0.926744
      4          1           0       -4.380355   -0.026354   -0.872211
      5          8           0       -1.261156    0.331632    0.221856
 ---------------------------------------------------------------------
                    Distance matrix (angstroms):
                    1          2          3          4          5
     1  C    0.000000
     2  O    1.408952   0.000000
     3  H    1.125777   2.132314   0.000000
     4  H    1.023245   2.130060   1.901116   0.000000
     5  O    2.535942   1.196060   2.981803   3.324836   0.000000
 Stoichiometry    CH2O2
 Framework group  C1[X(CH2O2)]
 Deg. of freedom     9
 Full point group                 C1      NOp   1
 Largest Abelian subgroup         C1      NOp   1
 Largest concise Abelian subgroup C1      NOp   1
                         Standard orientation:                         
 ---------------------------------------------------------------------
 Center     Atomic      Atomic             Coordinates (Angstroms)
 Number     Number       Type             X           Y           Z
 ---------------------------------------------------------------------
      1          6           0        1.266468   -0.061728   -0.013932
      2          8           0       -0.115669    0.209748    0.019848
      3          1           0        1.520525   -1.157554    0.030722
      4          1           0        1.958807    0.691720   -0.017626
      5          8           0       -1.269099   -0.105222   -0.011036
 ---------------------------------------------------------------------
 Rotational constants (GHZ):         182.9486092           9.8751398           9.3732274

 **********************************************************************

            Population analysis using the SCF density.

 **********************************************************************

 Orbital symmetries:
       Occupied  (A) (A) (A) (A) (A) (A) (A) (A) (A) (A) (A) (A)
       Virtual   (A) (A) (A) (A) (A) (A) (A) (A) (A) (A) (A) (A)
                 (A) (A) (A) (A) (A) (A) (A) (A) (A) (A) (A) (A)
                 (A) (A) (A) (A) (A) (A) (A) (A) (A) (A) (A) (A)
                 (A) (A) (A) (A) (A) (A) (A) (A) (A) (A) (A) (A)
                 (A) (A) (A) (A) (A) (A) (A) (A) (A) (A) (A) (A)
                 (A) (A) (A) (A) (A) (A) (A) (A) (A) (A) (A) (A)
                 (A) (A) (A) (A) (A) (A) (A) (A) (A) (A) (A) (A)
                 (A) (A) (A) (A) (A) (A) (A) (A) (A) (A) (A) (A)
                 (A) (A) (A) (A) (A) (A) (A) (A) (A) (A)
 The electronic state is 1-A.
 Alpha  occ. eigenvalues --  -19.79972 -19.67213 -10.66070  -1.39939  -1.02057
 Alpha  occ. eigenvalues --   -0.75058  -0.64300  -0.61694  -0.60248  -0.52181
 Alpha  occ. eigenvalues --   -0.31642  -0.30828
 Alpha virt. eigenvalues --   -0.05413   0.06774   0.10190   0.12740   0.22473
 Alpha virt. eigenvalues --    0.30789   0.32589   0.34578   0.43605   0.46016
 Alpha virt. eigenvalues --    0.49535   0.55854   0.61046   0.61773   0.66570
 Alpha virt. eigenvalues --    0.72194   0.74782   0.84179   0.85870   0.86812
 Alpha virt. eigenvalues --    0.92472   0.98730   1.00597   1.03815   1.06383
 Alpha virt. eigenvalues --    1.12991   1.28304   1.34622   1.40044   1.42149
 Alpha virt. eigenvalues --    1.49850   1.54972   1.61236   1.64420   1.80924
 Alpha virt. eigenvalues --    1.83648   2.05820   2.18486   2.20049   2.24855
 Alpha virt. eigenvalues --    2.26400   2.37317   2.48593   2.55117   2.60459
 Alpha virt. eigenvalues --    2.64100   2.80205   2.88158   2.91056   2.93325
 Alpha virt. eigenvalues --    3.01573   3.08101   3.09773   3.16517   3.22901
 Alpha virt. eigenvalues --    3.27204   3.34678   3.42742   3.58305   3.62792
 Alpha virt. eigenvalues --    3.76909   3.77674   3.80492   3.81037   3.84206
 Alpha virt. eigenvalues --    3.90980   3.92668   3.95812   4.11074   4.33076
 Alpha virt. eigenvalues --    4.54547   4.58978   4.71067   4.76992   4.78579
 Alpha virt. eigenvalues --    4.84630   4.93180   4.99195   5.00352   5.07128
 Alpha virt. eigenvalues --    5.09119   5.14087   5.18265   5.29893   5.33495
 Alpha virt. eigenvalues --    5.35430   5.46911   5.67920   5.92958   6.14014
 Alpha virt. eigenvalues --    6.17903   6.18984   6.27687   6.36473   6.39243
 Alpha virt. eigenvalues --    6.50411   6.53790   6.65765   6.90797   7.23558
 Alpha virt. eigenvalues --    7.26456   7.34953   7.78155   8.82725  11.82919
 Alpha virt. eigenvalues --   13.20509
          Condensed to atoms (all electrons):
               1          2          3          4          5
     1  C    4.932801   0.419272   0.396757   0.400069  -0.054807
     2  O    0.419272   7.496310  -0.043036  -0.018769   0.075307
     3  H    0.396757  -0.043036   0.582115  -0.047917   0.007072
     4  H    0.400069  -0.018769  -0.047917   0.492348   0.001200
     5  O   -0.054807   0.075307   0.007072   0.001200   8.226135
 Mulliken charges:
               1
     1  C   -0.094090
     2  O    0.070916
     3  H    0.105010
     4  H    0.173070
     5  O   -0.254906
 Sum of Mulliken charges =   0.00000
 Mulliken charges with hydrogens summed into heavy atoms:
               1
     1  C    0.183989
     2  O    0.070916
     5  O   -0.254906
 Electronic spatial extent (au):  <R**2>=            148.2618
 Charge=              0.0000 electrons
 Dipole moment (field-independent basis, Debye):
    X=              3.4142    Y=             -0.0697    Z=              0.0355  Tot=              3.4151
 Quadrupole moment (field-independent basis, Debye-Ang):
   XX=            -15.9285   YY=            -16.5394   ZZ=            -17.7962
   XY=              0.0142   XZ=             -0.0112   YZ=             -0.0863
 Traceless Quadrupole moment (field-independent basis, Debye-Ang):
   XX=              0.8262   YY=              0.2153   ZZ=             -1.0415
   XY=              0.0142   XZ=             -0.0112   YZ=             -0.0863
 Octapole moment (field-independent basis, Debye-Ang**2):
  XXX=              4.8545  YYY=              0.0431  ZZZ=              0.1218  XYY=              0.9619
  XXY=              1.7033  XXZ=             -0.0178  XZZ=             -3.0911  YZZ=              0.4162
  YYZ=              0.0882  XYZ=             -0.0997
 Hexadecapole moment (field-independent basis, Debye-Ang**3):
 XXXX=           -130.4363 YYYY=            -22.5419 ZZZZ=            -16.3137 XXXY=              4.6390
 XXXZ=             -0.0569 YYYX=             -0.6173 YYYZ=             -0.1435 ZZZX=              0.0866
 ZZZY=             -0.0258 XXYY=            -24.8742 XXZZ=            -28.2249 YYZZ=             -6.9593
 XXYZ=             -0.1911 YYXZ=              0.0879 ZZXY=              0.3993
 N-N= 6.922737619248D+01 E-N=-5.840940300629D+02  KE= 1.884949274928D+02


 Mondays are the potholes in the road of life.
                                -- Tom Wilson
 Error termination request processed by link 9999.
 Error termination via Lnk1e in /shared/centos7/gaussian/g16/l9999.exe at Fri Mar 29 11:27:36 2019.
 Job cpu time:       0 days  2 hours 39 minutes  9.5 seconds.
 Elapsed time:       0 days  0 hours 10 minutes  7.8 seconds.
 File lengths (MBytes):  RWF=    272 Int=      0 D2E=      0 Chk=     32 Scr=     32
