 Entering Gaussian System, Link 0=g16
 Input=nate[CH3].com
 Output=nate[CH3].log
 Initial command:
 /shared/centos7/gaussian/g16/l1.exe "/scratch/dinius.ab/QMscratch/Gau-26660.inp" -scrdir="/scratch/dinius.ab/QMscratch/"
 Default is to use a total of  20 processors:
                               20 via shared-memory
                                1 via Linda
 Entering Link 1 = /shared/centos7/gaussian/g16/l1.exe PID=     26661.
  
 Copyright (c) 1988,1990,1992,1993,1995,1998,2003,2009,2016,
            Gaussian, Inc.  All Rights Reserved.
  
 This is part of the Gaussian(R) 16 program.  It is based on
 the Gaussian(R) 09 system (copyright 2009, Gaussian, Inc.),
 the Gaussian(R) 03 system (copyright 2003, Gaussian, Inc.),
 the Gaussian(R) 98 system (copyright 1998, Gaussian, Inc.),
 the Gaussian(R) 94 system (copyright 1995, Gaussian, Inc.),
 the Gaussian 92(TM) system (copyright 1992, Gaussian, Inc.),
 the Gaussian 90(TM) system (copyright 1990, Gaussian, Inc.),
 the Gaussian 88(TM) system (copyright 1988, Gaussian, Inc.),
 the Gaussian 86(TM) system (copyright 1986, Carnegie Mellon
 University), and the Gaussian 82(TM) system (copyright 1983,
 Carnegie Mellon University). Gaussian is a federally registered
 trademark of Gaussian, Inc.
  
 This software contains proprietary and confidential information,
 including trade secrets, belonging to Gaussian, Inc.
  
 This software is provided under written license and may be
 used, copied, transmitted, or stored only in accord with that
 written license.
  
 The following legend is applicable only to US Government
 contracts under FAR:
  
                    RESTRICTED RIGHTS LEGEND
  
 Use, reproduction and disclosure by the US Government is
 subject to restrictions as set forth in subparagraphs (a)
 and (c) of the Commercial Computer Software - Restricted
 Rights clause in FAR 52.227-19.
  
 Gaussian, Inc.
 340 Quinnipiac St., Bldg. 40, Wallingford CT 06492
  
  
 ---------------------------------------------------------------
 Warning -- This program may not be used in any manner that
 competes with the business of Gaussian, Inc. or will provide
 assistance to any competitor of Gaussian, Inc.  The licensee
 of this program is prohibited from giving any competitor of
 Gaussian, Inc. access to this program.  By using this program,
 the user acknowledges that Gaussian, Inc. is engaged in the
 business of creating and licensing software in the field of
 computational chemistry and represents and warrants to the
 licensee that it is not a competitor of Gaussian, Inc. and that
 it will not use this program in any manner prohibited above.
 ---------------------------------------------------------------
  

 Cite this work as:
 Gaussian 16, Revision A.03,
 M. J. Frisch, G. W. Trucks, H. B. Schlegel, G. E. Scuseria, 
 M. A. Robb, J. R. Cheeseman, G. Scalmani, V. Barone, 
 G. A. Petersson, H. Nakatsuji, X. Li, M. Caricato, A. V. Marenich, 
 J. Bloino, B. G. Janesko, R. Gomperts, B. Mennucci, H. P. Hratchian, 
 J. V. Ortiz, A. F. Izmaylov, J. L. Sonnenberg, D. Williams-Young, 
 F. Ding, F. Lipparini, F. Egidi, J. Goings, B. Peng, A. Petrone, 
 T. Henderson, D. Ranasinghe, V. G. Zakrzewski, J. Gao, N. Rega, 
 G. Zheng, W. Liang, M. Hada, M. Ehara, K. Toyota, R. Fukuda, 
 J. Hasegawa, M. Ishida, T. Nakajima, Y. Honda, O. Kitao, H. Nakai, 
 T. Vreven, K. Throssell, J. A. Montgomery, Jr., J. E. Peralta, 
 F. Ogliaro, M. J. Bearpark, J. J. Heyd, E. N. Brothers, K. N. Kudin, 
 V. N. Staroverov, T. A. Keith, R. Kobayashi, J. Normand, 
 K. Raghavachari, A. P. Rendell, J. C. Burant, S. S. Iyengar, 
 J. Tomasi, M. Cossi, J. M. Millam, M. Klene, C. Adamo, R. Cammi, 
 J. W. Ochterski, R. L. Martin, K. Morokuma, O. Farkas, 
 J. B. Foresman, and D. J. Fox, Gaussian, Inc., Wallingford CT, 2016.
 
 ******************************************
 Gaussian 16:  EM64L-G16RevA.03 25-Dec-2016
                 2-Apr-2019 
 ******************************************
 ----------------------------------------------------------------------
 #m062x/cc-pVTZ Opt=(calcfc,verytight,gdiis,maxcycles=900) freq IOP(2/1
 6=3) scf=(maxcycle=900)
 ----------------------------------------------------------------------

 Warning!  Use of Opt=GDIIS is deprecated since it is seldom a good choice.

 1/6=900,7=1,10=4,18=20,19=11,26=3,38=1/1,3;
 2/9=110,12=2,16=3,17=6,18=5,40=1/2;
 3/5=16,6=1,11=2,25=1,30=1,71=2,74=-55,140=1/1,2,3;
 4//1;
 5/5=2,7=900,38=5/2;
 8/6=4,10=90,11=11/1;
 11/6=1,8=1,9=11,15=111,16=1/1,2,10;
 10/6=1,13=1/2;
 6/7=2,8=2,9=2,10=2,28=1/1;
 7/10=1,18=20,25=1/1,2,3,16;
 1/6=900,7=1,10=4,18=20,19=11,26=3/3(2);
 2/9=110,16=3/2;
 99//99;
 2/9=110,16=3/2;
 3/5=16,6=1,11=2,25=1,30=1,71=1,74=-55/1,2,3;
 4/5=5,16=3,69=1/1;
 5/5=2,7=900,38=5/2;
 7//1,2,3,16;
 1/6=900,7=1,18=20,19=11,26=3/3(-5);
 2/9=110,16=3/2;
 6/7=2,8=2,9=2,10=2,19=2,28=1/1;
 99/9=1/99;
 -----
 Title
 -----
 Symbolic Z-matrix:
 Charge =  0 Multiplicity = 2
 C                     2.58102   2.69301  -2.16484 
 H                     2.80178   3.04361  -3.17233 
 H                     3.4619    2.07988  -2.17157 
 H                     1.68533   3.28697  -2.23511 
 

 GradGradGradGradGradGradGradGradGradGradGradGradGradGradGradGradGradGrad
 Berny optimization.
 Initialization pass.
                           ----------------------------
                           !    Initial Parameters    !
                           ! (Angstroms and Degrees)  !
 --------------------------                            --------------------------
 ! Name  Definition              Value          Derivative Info.                !
 --------------------------------------------------------------------------------
 ! R1    R(1,2)                  1.0894         calculate D2E/DX2 analytically  !
 ! R2    R(1,3)                  1.0733         calculate D2E/DX2 analytically  !
 ! R3    R(1,4)                  1.077          calculate D2E/DX2 analytically  !
 ! A1    A(2,1,3)               90.6724         calculate D2E/DX2 analytically  !
 ! A2    A(2,1,4)               86.0263         calculate D2E/DX2 analytically  !
 ! A3    L(3,1,4,2,-1)         176.6986         calculate D2E/DX2 analytically  !
 ! A4    L(3,1,4,2,-2)         177.2452         calculate D2E/DX2 analytically  !
 ! D1    D(2,1,4,3)             39.8846         calculate D2E/DX2 analytically  !
 --------------------------------------------------------------------------------
 Trust Radius=3.00D-01 FncErr=1.00D-07 GrdErr=1.00D-06 EigMax=2.50D+02 EigMin=1.00D-04
 Number of steps in this run=    100 maximum allowed number of steps=    100.
 GradGradGradGradGradGradGradGradGradGradGradGradGradGradGradGradGradGrad

                          Input orientation:                          
 ---------------------------------------------------------------------
 Center     Atomic      Atomic             Coordinates (Angstroms)
 Number     Number       Type             X           Y           Z
 ---------------------------------------------------------------------
      1          6           0        2.581020    2.693010   -2.164840
      2          1           0        2.801780    3.043610   -3.172330
      3          1           0        3.461900    2.079880   -2.171570
      4          1           0        1.685330    3.286970   -2.235110
 ---------------------------------------------------------------------
                    Distance matrix (angstroms):
                    1          2          3          4
     1  C    0.000000
     2  H    1.089354   0.000000
     3  H    1.073277   1.538198   0.000000
     4  H    1.077027   1.477859   2.148791   0.000000
 Stoichiometry    CH3(2)
 Framework group  C1[X(CH3)]
 Deg. of freedom     6
 Full point group                 C1      NOp   1
 Largest Abelian subgroup         C1      NOp   1
 Largest concise Abelian subgroup C1      NOp   1
                         Standard orientation:                         
 ---------------------------------------------------------------------
 Center     Atomic      Atomic             Coordinates (Angstroms)
 Number     Number       Type             X           Y           Z
 ---------------------------------------------------------------------
      1          6           0       -0.009557   -0.127546   -0.006351
      2          1           0        0.070660    0.958837   -0.001111
      3          1           0       -1.080468   -0.061226    0.019621
      4          1           0        1.067147   -0.132332    0.019598
 ---------------------------------------------------------------------
 Rotational constants (GHZ):         456.9506647         216.7757447         147.1258645
 Standard basis: CC-pVTZ (5D, 7F)
 There are    80 symmetry adapted cartesian basis functions of A   symmetry.
 There are    72 symmetry adapted basis functions of A   symmetry.
    72 basis functions,   103 primitive gaussians,    80 cartesian basis functions
     5 alpha electrons        4 beta electrons
       nuclear repulsion energy         9.7692698783 Hartrees.
 NAtoms=    4 NActive=    4 NUniq=    4 SFac= 1.00D+00 NAtFMM=   60 NAOKFM=F Big=F
 Integral buffers will be    131072 words long.
 Raffenetti 2 integral format.
 Two-electron integral symmetry is turned on.
 One-electron integrals computed using PRISM.
 NBasis=    72 RedAO= T EigKep=  1.38D-03  NBF=    72
 NBsUse=    72 1.00D-06 EigRej= -1.00D+00 NBFU=    72
 ExpMin= 1.03D-01 ExpMax= 8.24D+03 ExpMxC= 2.81D+02 IAcc=3 IRadAn=         5 AccDes= 0.00D+00
 Harris functional with IExCor= 1009 and IRadAn=       5 diagonalized for initial guess.
 HarFok:  IExCor= 1009 AccDes= 0.00D+00 IRadAn=         5 IDoV= 1 UseB2=F ITyADJ=14
 ICtDFT=  3500011 ScaDFX=  1.000000  1.000000  1.000000  1.000000
 FoFCou: FMM=F IPFlag=           0 FMFlag=      100000 FMFlg1=           0
         NFxFlg=           0 DoJE=T BraDBF=F KetDBF=T FulRan=T
         wScrn=  0.000000 ICntrl=       500 IOpCl=  0 I1Cent=   200000004 NGrid=           0
         NMat0=    1 NMatS0=      1 NMatT0=    0 NMatD0=    1 NMtDS0=    0 NMtDT0=    0
 Petite list used in FoFCou.
 Initial guess <Sx>= 0.0000 <Sy>= 0.0000 <Sz>= 0.5000 <S**2>= 0.7500 S= 0.5000
 Keep R1 and R2 ints in memory in canonical form, NReq=25013556.
 Requested convergence on RMS density matrix=1.00D-08 within 900 cycles.
 Requested convergence on MAX density matrix=1.00D-06.
 Requested convergence on             energy=1.00D-06.
 No special actions if energy rises.
 Integral accuracy reduced to 1.0D-05 until final iterations.
 Initial convergence to 1.0D-05 achieved.  Increase integral accuracy.
 SCF Done:  E(UM062X) =  -39.7604435721     A.U. after   14 cycles
            NFock= 14  Conv=0.43D-08     -V/T= 2.0051
 <Sx>= 0.0000 <Sy>= 0.0000 <Sz>= 0.5000 <S**2>= 0.7566 S= 0.5033
 <L.S>= 0.000000000000E+00
 Annihilation of the first spin contaminant:
 S**2 before annihilation     0.7566,   after     0.7500
 DoSCS=F DFT=T ScalE2(SS,OS)=  1.000000  1.000000
 Range of M.O.s used for correlation:     1    72
 NBasis=    72 NAE=     5 NBE=     4 NFC=     0 NFV=     0
 NROrb=     72 NOA=     5 NOB=     4 NVA=    67 NVB=    68

 **** Warning!!: The largest alpha MO coefficient is  0.11026003D+02


 **** Warning!!: The largest beta MO coefficient is  0.11020754D+02

 Symmetrizing basis deriv contribution to polar:
 IMax=3 JMax=2 DiffMx= 0.00D+00
 G2DrvN: will do     5 centers at a time, making    1 passes.
 Calling FoFCou, ICntrl=  3107 FMM=F I1Cent=   0 AccDes= 0.00D+00.
 End of G2Drv F.D. properties file   721 does not exist.
 End of G2Drv F.D. properties file   722 does not exist.
 End of G2Drv F.D. properties file   788 does not exist.
          IDoAtm=1111
          Differentiating once with respect to nuclear coordinates.
 Keep R1 and R2 ints in memory in canonical form, NReq=24947241.
          There are    15 degrees of freedom in the 1st order CPHF.  IDoFFX=6 NUNeed=     0.
      9 vectors produced by pass  0 Test12= 4.05D-15 6.67D-09 XBig12= 1.11D-01 1.30D-01.
 AX will form     9 AO Fock derivatives at one time.
      9 vectors produced by pass  1 Test12= 4.05D-15 6.67D-09 XBig12= 5.86D-03 3.39D-02.
      9 vectors produced by pass  2 Test12= 4.05D-15 6.67D-09 XBig12= 1.54D-04 5.93D-03.
      9 vectors produced by pass  3 Test12= 4.05D-15 6.67D-09 XBig12= 3.08D-06 7.75D-04.
      9 vectors produced by pass  4 Test12= 4.05D-15 6.67D-09 XBig12= 4.05D-08 9.24D-05.
      9 vectors produced by pass  5 Test12= 4.05D-15 6.67D-09 XBig12= 4.26D-10 6.81D-06.
      8 vectors produced by pass  6 Test12= 4.05D-15 6.67D-09 XBig12= 4.46D-12 8.56D-07.
      5 vectors produced by pass  7 Test12= 4.05D-15 6.67D-09 XBig12= 2.15D-14 4.83D-08.
 InvSVY:  IOpt=1 It=  1 EMax= 4.44D-16
 Solved reduced A of dimension    67 with     9 vectors.
 End of Minotr F.D. properties file   721 does not exist.
 End of Minotr F.D. properties file   722 does not exist.
 End of Minotr F.D. properties file   788 does not exist.

 **********************************************************************

            Population analysis using the SCF density.

 **********************************************************************

 Orbital symmetries:
 Alpha Orbitals:
       Occupied  (A) (A) (A) (A) (A)
       Virtual   (A) (A) (A) (A) (A) (A) (A) (A) (A) (A) (A) (A)
                 (A) (A) (A) (A) (A) (A) (A) (A) (A) (A) (A) (A)
                 (A) (A) (A) (A) (A) (A) (A) (A) (A) (A) (A) (A)
                 (A) (A) (A) (A) (A) (A) (A) (A) (A) (A) (A) (A)
                 (A) (A) (A) (A) (A) (A) (A) (A) (A) (A) (A) (A)
                 (A) (A) (A) (A) (A) (A) (A)
 Beta  Orbitals:
       Occupied  (A) (A) (A) (A)
       Virtual   (A) (A) (A) (A) (A) (A) (A) (A) (A) (A) (A) (A)
                 (A) (A) (A) (A) (A) (A) (A) (A) (A) (A) (A) (A)
                 (A) (A) (A) (A) (A) (A) (A) (A) (A) (A) (A) (A)
                 (A) (A) (A) (A) (A) (A) (A) (A) (A) (A) (A) (A)
                 (A) (A) (A) (A) (A) (A) (A) (A) (A) (A) (A) (A)
                 (A) (A) (A) (A) (A) (A) (A) (A)
 The electronic state is 2-A.
 Alpha  occ. eigenvalues --  -10.54543  -0.79782  -0.54101  -0.40553  -0.29138
 Alpha virt. eigenvalues --    0.07359   0.11621   0.13187   0.26520   0.35939
 Alpha virt. eigenvalues --    0.37977   0.44384   0.49392   0.50336   0.52493
 Alpha virt. eigenvalues --    0.56768   0.61743   0.62909   0.88777   0.91567
 Alpha virt. eigenvalues --    1.02148   1.09401   1.10056   1.15532   1.31495
 Alpha virt. eigenvalues --    1.34504   1.35559   1.40693   1.60227   2.07092
 Alpha virt. eigenvalues --    2.09402   2.17337   2.36418   2.37290   2.47631
 Alpha virt. eigenvalues --    2.62336   2.66814   2.67620   2.73182   2.80288
 Alpha virt. eigenvalues --    2.88185   2.90734   2.99983   3.04795   3.05938
 Alpha virt. eigenvalues --    3.22037   3.28941   3.47406   3.48693   3.51191
 Alpha virt. eigenvalues --    3.54394   3.67281   3.73951   3.76575   3.81808
 Alpha virt. eigenvalues --    3.86033   3.95109   4.13418   4.19336   4.52393
 Alpha virt. eigenvalues --    4.61356   4.70941   4.75142   4.94419   4.96480
 Alpha virt. eigenvalues --    5.01347   5.03979   5.57993   5.67382   5.94824
 Alpha virt. eigenvalues --    6.33668  11.45941
  Beta  occ. eigenvalues --  -10.53787  -0.75334  -0.53069  -0.38459
  Beta virt. eigenvalues --   -0.03494   0.07556   0.11787   0.12989   0.24923
  Beta virt. eigenvalues --    0.32521   0.34571   0.44034   0.47728   0.52026
  Beta virt. eigenvalues --    0.53357   0.59205   0.61924   0.65473   0.89035
  Beta virt. eigenvalues --    0.90793   1.01529   1.07839   1.09237   1.15005
  Beta virt. eigenvalues --    1.31945   1.33626   1.36490   1.42467   1.64071
  Beta virt. eigenvalues --    2.08898   2.14735   2.17917   2.37215   2.40070
  Beta virt. eigenvalues --    2.51583   2.63918   2.68176   2.73908   2.79867
  Beta virt. eigenvalues --    2.83673   2.93327   2.95088   3.03096   3.10666
  Beta virt. eigenvalues --    3.13643   3.23792   3.29788   3.48156   3.49599
  Beta virt. eigenvalues --    3.52425   3.55593   3.69593   3.75452   3.77007
  Beta virt. eigenvalues --    3.83976   3.86944   3.96946   4.14408   4.20785
  Beta virt. eigenvalues --    4.55108   4.67190   4.72501   4.80315   4.98710
  Beta virt. eigenvalues --    5.00860   5.05803   5.08232   5.63811   5.71208
  Beta virt. eigenvalues --    6.05663   6.37844  11.46614
          Condensed to atoms (all electrons):
               1          2          3          4
     1  C    5.444462   0.320064   0.398399   0.399954
     2  H    0.320064   0.674358  -0.058396  -0.064720
     3  H    0.398399  -0.058396   0.455823  -0.014985
     4  H    0.399954  -0.064720  -0.014985   0.464726
          Atomic-Atomic Spin Densities.
               1          2          3          4
     1  C    1.099734   0.006158  -0.002580  -0.002428
     2  H    0.006158  -0.055456   0.010702   0.012794
     3  H   -0.002580   0.010702  -0.043723  -0.001632
     4  H   -0.002428   0.012794  -0.001632  -0.046582
 Mulliken charges and spin densities:
               1          2
     1  C   -0.562879   1.100884
     2  H    0.128694  -0.025803
     3  H    0.219160  -0.037233
     4  H    0.215025  -0.037848
 Sum of Mulliken charges =  -0.00000   1.00000
 Mulliken charges and spin densities with hydrogens summed into heavy atoms:
               1          2
     1  C   -0.000000   1.000000
 APT charges:
               1
     1  C   -0.952101
     2  H    0.261086
     3  H    0.348401
     4  H    0.342614
 Sum of APT charges =  -0.00000
 APT charges with hydrogens summed into heavy atoms:
               1
     1  C   -0.000000
 Electronic spatial extent (au):  <R**2>=             29.8160
 Charge=             -0.0000 electrons
 Dipole moment (field-independent basis, Debye):
    X=              0.0429    Y=              0.7445    Z=              0.0465  Tot=              0.7472
 Quadrupole moment (field-independent basis, Debye-Ang):
   XX=             -6.0680   YY=             -8.8175   ZZ=             -9.1225
   XY=             -0.0136   XZ=             -0.0002   YZ=              0.0120
 Traceless Quadrupole moment (field-independent basis, Debye-Ang):
   XX=              1.9346   YY=             -0.8148   ZZ=             -1.1198
   XY=             -0.0136   XZ=             -0.0002   YZ=              0.0120
 Octapole moment (field-independent basis, Debye-Ang**2):
  XXX=              0.0154  YYY=              1.3834  ZZZ=              0.0700  XYY=              0.0340
  XXY=              0.5266  XXZ=              0.0628  XZZ=              0.0154  YZZ=              0.3636
  YYZ=              0.0272  XYZ=             -0.0006
 Hexadecapole moment (field-independent basis, Debye-Ang**3):
 XXXX=            -13.5918 YYYY=            -15.6470 ZZZZ=            -11.0613 XXXY=             -0.1583
 XXXZ=             -0.0022 YYYX=              0.0772 YYYZ=              0.0121 ZZZX=             -0.0010
 ZZZY=              0.0064 XXYY=             -5.9177 XXZZ=             -4.9812 YYZZ=             -4.6153
 XXYZ=              0.0027 YYXZ=             -0.0001 ZZXY=             -0.0011
 N-N= 9.769269878314D+00 E-N=-1.112712835097D+02  KE= 3.955686808056D+01
  Exact polarizability:   0.000   0.000   0.000   0.000   0.000   0.000
 Approx polarizability:  15.249   0.345  16.862   0.006   0.073  11.633
                          Isotropic Fermi Contact Couplings
        Atom                 a.u.       MegaHertz       Gauss      10(-4) cm-1
     1  C(13)              0.21387     240.43214      85.79216      80.19953
     2  H(1)              -0.01677     -74.93958     -26.74030     -24.99715
     3  H(1)              -0.01926     -86.10437     -30.72418     -28.72133
     4  H(1)              -0.01943     -86.85166     -30.99083     -28.97059
 --------------------------------------------------------
       Center         ----  Spin Dipole Couplings  ----
                      3XX-RR        3YY-RR        3ZZ-RR
 --------------------------------------------------------
     1   Atom       -0.578549     -0.525554      1.104104
     2   Atom       -0.076078      0.078927     -0.002849
     3   Atom        0.079560     -0.076714     -0.002846
     4   Atom        0.079732     -0.077045     -0.002687
 --------------------------------------------------------
                        XY            XZ            YZ
 --------------------------------------------------------
     1   Atom        0.000486      0.000641      0.025211
     2   Atom        0.011585      0.000195      0.002527
     3   Atom       -0.008121     -0.002451      0.001297
     4   Atom       -0.002189      0.002548      0.001155
 --------------------------------------------------------


 ---------------------------------------------------------------------------------
              Anisotropic Spin Dipole Couplings in Principal Axis System
 ---------------------------------------------------------------------------------

       Atom             a.u.   MegaHertz   Gauss  10(-4) cm-1        Axes

              Baa    -0.5786   -77.636   -27.703   -25.897  1.0000 -0.0090 -0.0002
     1 C(13)  Bbb    -0.5259   -70.576   -25.183   -23.542  0.0090  0.9998 -0.0155
              Bcc     1.1045   148.212    52.886    49.438  0.0004  0.0155  0.9999
 
              Baa    -0.0769   -41.051   -14.648   -13.693  0.9972 -0.0741 -0.0001
     2 H(1)   Bbb    -0.0029    -1.562    -0.557    -0.521 -0.0022 -0.0305  0.9995
              Bcc     0.0799    42.612    15.205    14.214  0.0741  0.9968  0.0306
 
              Baa    -0.0772   -41.165   -14.689   -13.731  0.0515  0.9985 -0.0157
     3 H(1)   Bbb    -0.0029    -1.550    -0.553    -0.517  0.0311  0.0141  0.9994
              Bcc     0.0801    42.715    15.242    14.248  0.9982 -0.0520 -0.0303
 
              Baa    -0.0771   -41.134   -14.678   -13.721  0.0142  0.9998 -0.0160
     4 H(1)   Bbb    -0.0027    -1.465    -0.523    -0.489 -0.0304  0.0164  0.9994
              Bcc     0.0798    42.599    15.200    14.209  0.9994 -0.0137  0.0307
 

 ---------------------------------------------------------------------------------

 Calling FoFJK, ICntrl=    100147 FMM=F ISym2X=0 I1Cent= 0 IOpClX= 1 NMat=1 NMatS=1 NMatT=0.
 ***** Axes restored to original set *****
 -------------------------------------------------------------------
 Center     Atomic                   Forces (Hartrees/Bohr)
 Number     Number              X              Y              Z
 -------------------------------------------------------------------
      1        6           0.012819762    0.025564399   -0.063123598
      2        1           0.010147439    0.005393256   -0.018599247
      3        1          -0.009348873   -0.015600411    0.038330234
      4        1          -0.013618328   -0.015357244    0.043392611
 -------------------------------------------------------------------
 Cartesian Forces:  Max     0.063123598 RMS     0.027965256
 FormGI is forming the generalized inverse of G from B-inverse, IUseBI=4.

 GradGradGradGradGradGradGradGradGradGradGradGradGradGradGradGradGradGrad
 Berny optimization.
 Internal  Forces:  Max     0.040274367 RMS     0.022516729
 Search for a local minimum.
 Step number   1 out of a maximum of  100
 All quantities printed in internal units (Hartrees-Bohrs-Radians)
 Swapping is turned off.
 Second derivative matrix not updated -- analytic derivatives used.
 The second derivative matrix:
                          R1        R2        R3        A1        A2
           R1           0.33703
           R2           0.00794   0.38492
           R3           0.01009  -0.00889   0.37554
           A1           0.00790   0.01192  -0.01010   0.06916
           A2           0.01094  -0.00966   0.01253  -0.07491   0.07100
           A3           0.01884   0.00226   0.00243  -0.00575  -0.00391
           A4           0.01552   0.00189   0.00202  -0.00628  -0.00480
           D1           0.00156  -0.00002  -0.00001   0.01563   0.01556
                          A3        A4        D1
           A3          -0.00967
           A4          -0.01109  -0.01178
           D1           0.03120   0.02613  -0.00175
 ITU=  0
     Eigenvalues ---   -0.06320   0.03292   0.14300   0.33440   0.37516
     Eigenvalues ---    0.39217
 Eigenvalue     1 is  -6.32D-02 should be greater than     0.000000 Eigenvector:
                          D1        A3        A4        A1        A2
   1                    0.59938  -0.51619  -0.48804  -0.26296  -0.25322
                          R1        R2        R3
   1                    0.05276   0.00539   0.00520
 Quadratic step=1.331D+00 exceeds max=3.000D-01 adjusted using Lamda=-1.472D-01.
 Angle between NR and scaled steps=  15.54 degrees.
 Angle between quadratic step and forces=  14.55 degrees.
 Linear search not attempted -- option 19 set.
 New curvilinear step failed, DQL= 3.10D+00 SP=-3.94D-02.
 ITry= 1 IFail=1 DXMaxC= 0.00D+00 DCOld= 1.00D+10 DXMaxT= 3.00D-01 DXLimC= 3.00D+00 Rises=F
 New curvilinear step failed, DQL= 3.10D+00 SP=-4.86D-02.
 ITry= 2 IFail=1 DXMaxC= 0.00D+00 DCOld= 1.00D+10 DXMaxT= 3.00D-01 DXLimC= 3.00D+00 Rises=F
 New curvilinear step failed, DQL= 3.10D+00 SP=-5.80D-02.
 ITry= 3 IFail=1 DXMaxC= 0.00D+00 DCOld= 1.00D+10 DXMaxT= 3.00D-01 DXLimC= 3.00D+00 Rises=F
 New curvilinear step failed, DQL= 3.11D+00 SP=-6.74D-02.
 ITry= 4 IFail=1 DXMaxC= 0.00D+00 DCOld= 1.00D+10 DXMaxT= 3.00D-01 DXLimC= 3.00D+00 Rises=F
 New curvilinear step failed, DQL= 3.11D+00 SP=-7.68D-02.
 ITry= 5 IFail=1 DXMaxC= 0.00D+00 DCOld= 1.00D+10 DXMaxT= 3.00D-01 DXLimC= 3.00D+00 Rises=F
 New curvilinear step failed, DQL= 3.11D+00 SP=-8.62D-02.
 ITry= 6 IFail=1 DXMaxC= 0.00D+00 DCOld= 1.00D+10 DXMaxT= 3.00D-01 DXLimC= 3.00D+00 Rises=F
 New curvilinear step failed, DQL= 3.11D+00 SP=-9.56D-02.
 ITry= 7 IFail=1 DXMaxC= 0.00D+00 DCOld= 1.00D+10 DXMaxT= 3.00D-01 DXLimC= 3.00D+00 Rises=F
 New curvilinear step failed, DQL= 3.04D+00 SP=-1.04D-01.
 ITry= 8 IFail=1 DXMaxC= 0.00D+00 DCOld= 1.00D+10 DXMaxT= 3.00D-01 DXLimC= 3.00D+00 Rises=F
 Iteration  1 RMS(Cart)=  0.01829927 RMS(Int)=  0.00149793
 Iteration  2 RMS(Cart)=  0.00034040 RMS(Int)=  0.00017657
 Iteration  3 RMS(Cart)=  0.00000155 RMS(Int)=  0.00017656
 Iteration  4 RMS(Cart)=  0.00000000 RMS(Int)=  0.00017656
 ITry= 9 IFail=0 DXMaxC= 2.63D-02 DCOld= 1.00D+10 DXMaxT= 3.00D-01 DXLimC= 3.00D+00 Rises=F
 Variable       Old X    -DE/DX   Delta X   Delta X   Delta X     New X
                                 (Linear)    (Quad)   (Total)
    R1        2.05858   0.02099   0.00000   0.02912   0.00582   2.06440
    R2        2.02820   0.00100   0.00000   0.00058   0.00012   2.02831
    R3        2.03529   0.00003   0.00000  -0.00309  -0.00062   2.03467
    A1        1.58253   0.01429   0.00000   0.08117   0.01612   1.59865
    A2        1.50144   0.02598   0.00000   0.11934   0.02375   1.52519
    A3        3.08397   0.04027   0.00000   0.20051   0.03987   3.12384
    A4        3.09351   0.03316   0.00000   0.16296   0.03300   3.12652
    D1        0.69612   0.00367   0.00000   0.04004   0.00802   0.70414
         Item               Value     Threshold  Converged?
 Maximum Force            0.040274     0.000002     NO 
 RMS     Force            0.022517     0.000001     NO 
 Maximum Displacement     0.026330     0.000006     NO 
 RMS     Displacement     0.018304     0.000004     NO 
 Predicted change in Energy=-3.705098D-03
 GradGradGradGradGradGradGradGradGradGradGradGradGradGradGradGradGradGrad

                          Input orientation:                          
 ---------------------------------------------------------------------
 Center     Atomic      Atomic             Coordinates (Angstroms)
 Number     Number       Type             X           Y           Z
 ---------------------------------------------------------------------
      1          6           0        2.576599    2.687201   -2.178549
      2          1           0        2.806636    3.046530   -3.184224
      3          1           0        3.462448    2.081414   -2.159900
      4          1           0        1.684347    3.288325   -2.221177
 ---------------------------------------------------------------------
                    Distance matrix (angstroms):
                    1          2          3          4
     1  C    0.000000
     2  H    1.092435   0.000000
     3  H    1.073338   1.552668   0.000000
     4  H    1.076699   1.498485   2.149892   0.000000
 Stoichiometry    CH3(2)
 Framework group  C1[X(CH3)]
 Deg. of freedom     6
 Full point group                 C1      NOp   1
 Largest Abelian subgroup         C1      NOp   1
 Largest concise Abelian subgroup C1      NOp   1
                         Standard orientation:                         
 ---------------------------------------------------------------------
 Center     Atomic      Atomic             Coordinates (Angstroms)
 Number     Number       Type             X           Y           Z
 ---------------------------------------------------------------------
      1          6           0       -0.008601   -0.123211   -0.002015
      2          1           0        0.064864    0.966749   -0.000106
      3          1           0       -1.081074   -0.080899    0.006107
      4          1           0        1.067814   -0.146583    0.006092
 ---------------------------------------------------------------------
 Rotational constants (GHZ):         452.5923483         216.7061032         146.5504324
 Standard basis: CC-pVTZ (5D, 7F)
 There are    80 symmetry adapted cartesian basis functions of A   symmetry.
 There are    72 symmetry adapted basis functions of A   symmetry.
    72 basis functions,   103 primitive gaussians,    80 cartesian basis functions
     5 alpha electrons        4 beta electrons
       nuclear repulsion energy         9.7535164425 Hartrees.
 NAtoms=    4 NActive=    4 NUniq=    4 SFac= 1.00D+00 NAtFMM=   60 NAOKFM=F Big=F
 Integral buffers will be    131072 words long.
 Raffenetti 2 integral format.
 Two-electron integral symmetry is turned on.
 One-electron integrals computed using PRISM.
 NBasis=    72 RedAO= T EigKep=  1.37D-03  NBF=    72
 NBsUse=    72 1.00D-06 EigRej= -1.00D+00 NBFU=    72
 Initial guess from the checkpoint file:  "/scratch/dinius.ab/QMscratch/Gau-26661.chk"
 B after Tr=    -0.000000    0.000000   -0.000000
         Rot=    0.999998   -0.000526    0.000009   -0.001891 Ang=  -0.22 deg.
 Initial guess <Sx>= 0.0000 <Sy>= 0.0000 <Sz>= 0.5000 <S**2>= 0.7566 S= 0.5033
 ExpMin= 1.03D-01 ExpMax= 8.24D+03 ExpMxC= 2.81D+02 IAcc=2 IRadAn=         4 AccDes= 0.00D+00
 Harris functional with IExCor= 1009 and IRadAn=       4 diagonalized for initial guess.
 HarFok:  IExCor= 1009 AccDes= 0.00D+00 IRadAn=         4 IDoV= 1 UseB2=F ITyADJ=14
 ICtDFT=  3500011 ScaDFX=  1.000000  1.000000  1.000000  1.000000
 FoFCou: FMM=F IPFlag=           0 FMFlag=      100000 FMFlg1=           0
         NFxFlg=           0 DoJE=T BraDBF=F KetDBF=T FulRan=T
         wScrn=  0.000000 ICntrl=       500 IOpCl=  0 I1Cent=   200000004 NGrid=           0
         NMat0=    1 NMatS0=      1 NMatT0=    0 NMatD0=    1 NMtDS0=    0 NMtDT0=    0
 Petite list used in FoFCou.
 Keep R1 and R2 ints in memory in canonical form, NReq=25013556.
 Requested convergence on RMS density matrix=1.00D-08 within 900 cycles.
 Requested convergence on MAX density matrix=1.00D-06.
 Requested convergence on             energy=1.00D-06.
 No special actions if energy rises.
 Integral accuracy reduced to 1.0D-05 until final iterations.
 Initial convergence to 1.0D-05 achieved.  Increase integral accuracy.
 SCF Done:  E(UM062X) =  -39.7641484860     A.U. after   13 cycles
            NFock= 13  Conv=0.45D-08     -V/T= 2.0054
 <Sx>= 0.0000 <Sy>= 0.0000 <Sz>= 0.5000 <S**2>= 0.7565 S= 0.5033
 <L.S>= 0.000000000000E+00
 Annihilation of the first spin contaminant:
 S**2 before annihilation     0.7565,   after     0.7500
 Calling FoFJK, ICntrl=      2127 FMM=F ISym2X=0 I1Cent= 0 IOpClX= 1 NMat=1 NMatS=1 NMatT=0.
 ***** Axes restored to original set *****
 -------------------------------------------------------------------
 Center     Atomic                   Forces (Hartrees/Bohr)
 Number     Number              X              Y              Z
 -------------------------------------------------------------------
      1        6           0.013379412    0.025747711   -0.066250458
      2        1           0.008259318    0.003454304   -0.015797885
      3        1          -0.009573928   -0.014251646    0.038739375
      4        1          -0.012064802   -0.014950369    0.043308968
 -------------------------------------------------------------------
 Cartesian Forces:  Max     0.066250458 RMS     0.028285813

 GradGradGradGradGradGradGradGradGradGradGradGradGradGradGradGradGradGrad
 Berny optimization.
 Using GDIIS optimizer.
 FormGI is forming the generalized inverse of G from B-inverse, IUseBI=4.
 Internal  Forces:  Max     0.040533509 RMS     0.022378803
 Search for a local minimum.
 Step number   2 out of a maximum of  100
 All quantities printed in internal units (Hartrees-Bohrs-Radians)
 Swapping is turned off.
 Update second derivatives using D2CorX and points    1    2
 DE= -3.70D-03 DEPred=-3.71D-03 R= 1.00D+00
 TightC=F SS=  1.41D+00  RLast= 6.00D-02 DXNew= 5.0454D-01 1.8004D-01
 Trust test= 1.00D+00 RLast= 6.00D-02 DXMaxT set to 3.00D-01
 The second derivative matrix:
                          R1        R2        R3        A1        A2
           R1           0.15364
           R2           0.00708   0.38537
           R3           0.01559  -0.00832   0.37602
           A1          -0.00925   0.00889  -0.01311   0.08671
           A2          -0.05776  -0.01235   0.01176  -0.06596   0.05760
           A3          -0.06701  -0.00346  -0.00135   0.02075  -0.00836
           A4           0.23190   0.01115   0.00539  -0.03959   0.03328
           D1          -0.09613   0.00138   0.00515  -0.00558  -0.03072
                          A3        A4        D1
           A3           0.01239
           A4          -0.00631  -0.11742
           D1          -0.03630   0.17514  -0.04618
 ITU=  1  0
     Eigenvalues ---   -0.15956   0.02041   0.13129   0.20867   0.37275
     Eigenvalues ---    0.39215
 Cosine:  0.854 <  0.970
 Cut down GDIIS temporarily because of the cosine check. E 9
 DIIS coeff's:     14.29483    -13.29483
 Cosine:  0.854 >  0.500
 Length:  1.329
 GDIIS step was calculated using  2 of the last  2 vectors.
 Maximum step size (   0.300) exceeded in Quadratic search.
    -- Step size scaled by   0.119
 New curvilinear step failed, DQL= 3.10D+00 SP=-2.18D-01.
 ITry= 1 IFail=1 DXMaxC= 0.00D+00 DCOld= 1.00D+10 DXMaxT= 3.00D-01 DXLimC= 3.00D+00 Rises=F
 New curvilinear step failed, DQL= 3.11D+00 SP=-2.17D-01.
 ITry= 2 IFail=1 DXMaxC= 0.00D+00 DCOld= 1.00D+10 DXMaxT= 3.00D-01 DXLimC= 3.00D+00 Rises=F
 New curvilinear step failed, DQL= 3.11D+00 SP=-2.17D-01.
 ITry= 3 IFail=1 DXMaxC= 0.00D+00 DCOld= 1.00D+10 DXMaxT= 3.00D-01 DXLimC= 3.00D+00 Rises=F
 New curvilinear step failed, DQL= 3.11D+00 SP=-2.16D-01.
 ITry= 4 IFail=1 DXMaxC= 0.00D+00 DCOld= 1.00D+10 DXMaxT= 3.00D-01 DXLimC= 3.00D+00 Rises=F
 New curvilinear step failed, DQL= 3.11D+00 SP=-2.13D-01.
 ITry= 5 IFail=1 DXMaxC= 0.00D+00 DCOld= 1.00D+10 DXMaxT= 3.00D-01 DXLimC= 3.00D+00 Rises=F
 New curvilinear step failed, DQL= 3.11D+00 SP=-2.08D-01.
 ITry= 6 IFail=1 DXMaxC= 0.00D+00 DCOld= 1.00D+10 DXMaxT= 3.00D-01 DXLimC= 3.00D+00 Rises=F
 New curvilinear step failed, DQL= 3.12D+00 SP=-2.01D-01.
 ITry= 7 IFail=1 DXMaxC= 0.00D+00 DCOld= 1.00D+10 DXMaxT= 3.00D-01 DXLimC= 3.00D+00 Rises=F
 New curvilinear step failed, DQL= 3.12D+00 SP=-1.89D-01.
 ITry= 8 IFail=1 DXMaxC= 0.00D+00 DCOld= 1.00D+10 DXMaxT= 3.00D-01 DXLimC= 3.00D+00 Rises=F
 New curvilinear step failed, DQL= 3.12D+00 SP=-1.72D-01.
 ITry= 9 IFail=1 DXMaxC= 0.00D+00 DCOld= 1.00D+10 DXMaxT= 3.00D-01 DXLimC= 3.00D+00 Rises=F
 New curvilinear step failed, DQL= 3.12D+00 SP=-1.46D-01.
 ITry=10 IFail=1 DXMaxC= 0.00D+00 DCOld= 1.00D+10 DXMaxT= 3.00D-01 DXLimC= 3.00D+00 Rises=F
 RedQX1 iteration     1 Try  1 RMS(Cart)=  0.01763323 RMS(Int)=  1.14698236 XScale=  0.10041463
 RedQX1 iteration     2 Try  1 RMS(Cart)=  0.00352665 RMS(Int)=  0.10681380 XScale= 23.98487901
 RedQX1 iteration     2 Try  2 RMS(Cart)=  0.00352667 RMS(Int)=  0.09953224 XScale=  6.63359263
 RedQX1 iteration     2 Try  3 RMS(Cart)=  0.00352669 RMS(Int)=  1.07879421 XScale=  0.10046470
 RedQX1 iteration     3 Try  1 RMS(Cart)=  0.00324456 RMS(Int)=  1.07835781 XScale=  0.10050741
 RedQX1 iteration     4 Try  1 RMS(Cart)=  0.00064891 RMS(Int)=  0.11525049 XScale=  1.14422652
 RedQX1 iteration     4 Try  2 RMS(Cart)=  0.00064900 RMS(Int)=  1.07347917 XScale=  0.10097441
 RedQX1 iteration     5 Try  1 RMS(Cart)=  0.00064381 RMS(Int)=  1.07331957 XScale=  0.10098913
 RedQX1 iteration     6 Try  1 RMS(Cart)=  0.00012876 RMS(Int)=  0.81951640 XScale=  0.13137562
 RedQX1 iteration     7 Try  1 RMS(Cart)=  0.00002575 RMS(Int)=  0.13236855 XScale=  0.89117745
 RedQX1 iteration     8 Try  1 RMS(Cart)=  0.00000515 RMS(Int)=  0.11772442 XScale=  1.09438734
 RedQX1 iteration     8 Try  2 RMS(Cart)=  0.00000515 RMS(Int)=  0.12057672 XScale=  1.04434825
 RedQX1 iteration     8 Try  3 RMS(Cart)=  0.00000515 RMS(Int)=  0.12387727 XScale=  0.99411362
 RedQX1 iteration     9 Try  1 RMS(Cart)=  0.00000515 RMS(Int)=  0.12387682 XScale=  0.99412008
 RedQX1 iteration    10 Try  1 RMS(Cart)=  0.00000103 RMS(Int)=  0.12119723 XScale=  1.03433665
 RedQX1 iteration    10 Try  2 RMS(Cart)=  0.00000103 RMS(Int)=  0.12183618 XScale=  1.02431724
 RedQX1 iteration    10 Try  3 RMS(Cart)=  0.00000103 RMS(Int)=  0.12249421 XScale=  1.01429005
 RedQX1 iteration    10 Try  4 RMS(Cart)=  0.00000103 RMS(Int)=  0.12317201 XScale=  1.00425515
 RedQX1 iteration    10 Try  5 RMS(Cart)=  0.00000103 RMS(Int)=  0.12387028 XScale=  0.99421258
 RedQX1 iteration    11 Try  1 RMS(Cart)=  0.00000103 RMS(Int)=  0.12387024 XScale=  0.99421310
 RedQX1 iteration    12 Try  1 RMS(Cart)=  0.00000021 RMS(Int)=  0.12330994 XScale=  1.00224813
 RedQX1 iteration    12 Try  2 RMS(Cart)=  0.00000021 RMS(Int)=  0.12344870 XScale=  1.00024081
 RedQX1 iteration    12 Try  3 RMS(Cart)=  0.00000021 RMS(Int)=  0.12358828 XScale=  0.99823318
 RedQX1 iteration    13 Try  1 RMS(Cart)=  0.00000021 RMS(Int)=  0.12358828 XScale=  0.99823319
 RedQX1 iteration    14 Try  1 RMS(Cart)=  0.00000004 RMS(Int)=  0.12347655 XScale=  0.99983934
 B after Tr=    -0.000000   -0.000000   -0.000000
         Rot=    1.000000   -0.000000    0.000000   -0.000000 Ang=   0.00 deg.
 Variable       Old X    -DE/DX   Delta X   Delta X   Delta X     New X
                                 (Linear)    (Quad)   (Total)
    R1        2.06440   0.01742   0.00919  -0.00791   0.00014   2.06454
    R2        2.02831   0.00082   0.00018  -0.00192  -0.00003   2.02829
    R3        2.03467  -0.00006  -0.00098  -0.00348  -0.00025   2.03441
    A1        1.59865   0.01503   0.02543   0.06420   0.00779   1.60644
    A2        1.52519   0.02551   0.03747   0.07527   0.00982   1.53501
    A3        3.12384   0.04053   0.06290   0.13947   0.01761   3.14145
    A4        3.12652   0.03438   0.05206   0.11582   0.01485   3.14136
    D1        0.70414   0.00109   0.01265   0.08445   0.31413   1.01827
         Item               Value     Threshold  Converged?
 Maximum Force            0.040534     0.000002     NO 
 RMS     Force            0.022379     0.000001     NO 
 Maximum Displacement     0.012131     0.000006     NO 
 RMS     Displacement     0.007717     0.000004     NO 
 Predicted change in Energy=-3.722905D-03
 GradGradGradGradGradGradGradGradGradGradGradGradGradGradGradGradGradGrad

                          Input orientation:                          
 ---------------------------------------------------------------------
 Center     Atomic      Atomic             Coordinates (Angstroms)
 Number     Number       Type             X           Y           Z
 ---------------------------------------------------------------------
      1          6           0        2.574850    2.684689   -2.184969
      2          1           0        2.808251    3.047726   -3.188612
      3          1           0        3.462603    2.082186   -2.154820
      4          1           0        1.684326    3.288869   -2.215448
 ---------------------------------------------------------------------
                    Distance matrix (angstroms):
                    1          2          3          4
     1  C    0.000000
     2  H    1.092507   0.000000
     3  H    1.073325   1.558579   0.000000
     4  H    1.076566   1.506123   2.149890   0.000000
 Stoichiometry    CH3(2)
 Framework group  C1[X(CH3)]
 Deg. of freedom     6
 Full point group                 C1      NOp   1
 Largest Abelian subgroup         C1      NOp   1
 Largest concise Abelian subgroup C1      NOp   1
                         Standard orientation:                         
 ---------------------------------------------------------------------
 Center     Atomic      Atomic             Coordinates (Angstroms)
 Number     Number       Type             X           Y           Z
 ---------------------------------------------------------------------
      1          6           0       -0.008316   -0.121135   -0.000031
      2          1           0        0.063284    0.969023   -0.000000
      3          1           0       -1.081159   -0.089003    0.000094
      4          1           0        1.067772   -0.153210    0.000093
 ---------------------------------------------------------------------
 Rotational constants (GHZ):         451.4510845         216.7311132         146.4323623
 Standard basis: CC-pVTZ (5D, 7F)
 There are    80 symmetry adapted cartesian basis functions of A   symmetry.
 There are    72 symmetry adapted basis functions of A   symmetry.
    72 basis functions,   103 primitive gaussians,    80 cartesian basis functions
     5 alpha electrons        4 beta electrons
       nuclear repulsion energy         9.7506434693 Hartrees.
 NAtoms=    4 NActive=    4 NUniq=    4 SFac= 1.00D+00 NAtFMM=   60 NAOKFM=F Big=F
 Integral buffers will be    131072 words long.
 Raffenetti 2 integral format.
 Two-electron integral symmetry is turned on.
 One-electron integrals computed using PRISM.
 NBasis=    72 RedAO= T EigKep=  1.36D-03  NBF=    72
 NBsUse=    72 1.00D-06 EigRej= -1.00D+00 NBFU=    72
 Initial guess from the checkpoint file:  "/scratch/dinius.ab/QMscratch/Gau-26661.chk"
 B after Tr=     0.000000   -0.000000    0.000000
         Rot=    1.000000   -0.000055    0.000001   -0.000512 Ang=  -0.06 deg.
 Initial guess <Sx>= 0.0000 <Sy>= 0.0000 <Sz>= 0.5000 <S**2>= 0.7565 S= 0.5033
 Keep R1 and R2 ints in memory in canonical form, NReq=25013556.
 Requested convergence on RMS density matrix=1.00D-08 within 900 cycles.
 Requested convergence on MAX density matrix=1.00D-06.
 Requested convergence on             energy=1.00D-06.
 No special actions if energy rises.
 SCF Done:  E(UM062X) =  -39.7657536174     A.U. after   10 cycles
            NFock= 10  Conv=0.36D-08     -V/T= 2.0054
 <Sx>= 0.0000 <Sy>= 0.0000 <Sz>= 0.5000 <S**2>= 0.7565 S= 0.5032
 <L.S>= 0.000000000000E+00
 Annihilation of the first spin contaminant:
 S**2 before annihilation     0.7565,   after     0.7500
 Calling FoFJK, ICntrl=      2127 FMM=F ISym2X=0 I1Cent= 0 IOpClX= 1 NMat=1 NMatS=1 NMatT=0.
 ***** Axes restored to original set *****
 -------------------------------------------------------------------
 Center     Atomic                   Forces (Hartrees/Bohr)
 Number     Number              X              Y              Z
 -------------------------------------------------------------------
      1        6           0.013403962    0.025609303   -0.066847471
      2        1           0.007684899    0.002835526   -0.015330481
      3        1          -0.009646425   -0.013671438    0.038868720
      4        1          -0.011442436   -0.014773392    0.043309232
 -------------------------------------------------------------------
 Cartesian Forces:  Max     0.066847471 RMS     0.028316396

 GradGradGradGradGradGradGradGradGradGradGradGradGradGradGradGradGradGrad
 Berny optimization.
 Using GDIIS optimizer.
 FormGI is forming the generalized inverse of G from B-inverse, IUseBI=4.
 Internal  Forces:  Max     0.035669092 RMS     0.017055318
 Search for a local minimum.
 Step number   3 out of a maximum of  100
 All quantities printed in internal units (Hartrees-Bohrs-Radians)
 Swapping is turned off.
 Update second derivatives using D2CorX and points    1    2    3
 DE= -1.61D-03 DEPred=-3.72D-03 R= 4.31D-01
 Trust test= 4.31D-01 RLast= 3.15D-01 DXMaxT set to 3.00D-01
 The second derivative matrix:
                          R1        R2        R3        A1        A2
           R1           0.41167
           R2           0.00138   0.38553
           R3          -0.00040  -0.00793   0.37705
           A1          -0.00117   0.01068  -0.01145   0.18256
           A2           0.01466  -0.01193   0.00949   0.03509   0.18000
           A3           0.01349  -0.00125  -0.00195   0.21765   0.21509
           A4          -0.27801   0.02293   0.03756  -0.02022  -0.07354
           D1           0.01417  -0.00079  -0.00141   0.01217   0.01495
                          A3        A4        D1
           A3           0.43274
           A4          -0.09376   0.89895
           D1           0.02711  -0.03838   0.00294
 ITU=  0  1  0
     Eigenvalues ---    0.00243   0.14240   0.29600   0.37389   0.39216
     Eigenvalues ---    0.81439
 Cosine:  0.152 <  0.840
 Cut down GDIIS temporarily because of the cosine check. E 7
 DIIS coeff's:      2.36294     -1.36294
 Cosine:  0.992 >  0.970
 Length:  1.014
 GDIIS step was calculated using  2 of the last  3 vectors.
 Iteration  1 RMS(Cart)=  0.00521222 RMS(Int)=  0.98931043
 Iteration  2 RMS(Cart)=  0.04680590 RMS(Int)=  0.97444694
 Iteration  3 RMS(Cart)=  0.00603692 RMS(Int)=  0.90797132
 Iteration  4 RMS(Cart)=  0.00633401 RMS(Int)=  0.83958762
 Iteration  5 RMS(Cart)=  0.00640160 RMS(Int)=  0.77272769
 Iteration  6 RMS(Cart)=  0.00607196 RMS(Int)=  0.70865883
 Iteration  7 RMS(Cart)=  0.00534827 RMS(Int)=  0.65007644
 Iteration  8 RMS(Cart)=  0.00427459 RMS(Int)=  0.60163439
 Iteration  9 RMS(Cart)=  0.00293793 RMS(Int)=  0.56847931
 Iteration 10 RMS(Cart)=  0.00168291 RMS(Int)=  0.55031135
 Iteration 11 RMS(Cart)=  0.00098486 RMS(Int)=  0.53997249
 Iteration 12 RMS(Cart)=  0.00072331 RMS(Int)=  0.53235998
 Iteration 13 RMS(Cart)=  0.00061378 RMS(Int)=  0.52580640
 Iteration 14 RMS(Cart)=  0.00055627 RMS(Int)=  0.51975790
 Iteration 15 RMS(Cart)=  0.00052076 RMS(Int)=  0.51398106
 Iteration 16 RMS(Cart)=  0.00049640 RMS(Int)=  0.50835537
 Iteration 17 RMS(Cart)=  0.00047846 RMS(Int)=  0.50280628
 Iteration 18 RMS(Cart)=  0.00046466 RMS(Int)=  0.49727815
 Iteration 19 RMS(Cart)=  0.00045377 RMS(Int)=  0.49171971
 Iteration 20 RMS(Cart)=  0.00044512 RMS(Int)=  0.48607148
 Iteration 21 RMS(Cart)=  0.00043831 RMS(Int)=  0.48024702
 Iteration 22 RMS(Cart)=  0.00043344 RMS(Int)=  0.47408869
 Iteration 23 RMS(Cart)=  0.00043081 RMS(Int)=  0.46721823
 Iteration 24 RMS(Cart)=  0.00043179 RMS(Int)=  0.45814643
 Iteration 25 RMS(Cart)=  0.00044253 RMS(Int)=  0.06031433
 Iteration 26 RMS(Cart)=  0.00126625 RMS(Int)=  1.06038257
 Iteration 27 RMS(Cart)=  0.02594231 RMS(Int)=  1.05017051
 Iteration 28 RMS(Cart)=  0.00540522 RMS(Int)=  0.98363244
 Iteration 29 RMS(Cart)=  0.00585492 RMS(Int)=  0.91586770
 Iteration 30 RMS(Cart)=  0.00632443 RMS(Int)=  0.84736635
 Iteration 31 RMS(Cart)=  0.00641654 RMS(Int)=  0.78029103
 Iteration 32 RMS(Cart)=  0.00613101 RMS(Int)=  0.71580057
 Iteration 33 RMS(Cart)=  0.00545021 RMS(Int)=  0.65639034
 Iteration 34 RMS(Cart)=  0.00441404 RMS(Int)=  0.60649680
 Iteration 35 RMS(Cart)=  0.00309731 RMS(Int)=  0.57143390
 Iteration 36 RMS(Cart)=  0.00180417 RMS(Int)=  0.55185161
 Iteration 37 RMS(Cart)=  0.00103544 RMS(Int)=  0.54096835
 Iteration 38 RMS(Cart)=  0.00074234 RMS(Int)=  0.53316479
 Iteration 39 RMS(Cart)=  0.00062279 RMS(Int)=  0.52652771
 Iteration 40 RMS(Cart)=  0.00056144 RMS(Int)=  0.52043633
 Iteration 41 RMS(Cart)=  0.00052415 RMS(Int)=  0.51463569
 Iteration 42 RMS(Cart)=  0.00049881 RMS(Int)=  0.50899697
 Iteration 43 RMS(Cart)=  0.00048028 RMS(Int)=  0.50344211
 Iteration 44 RMS(Cart)=  0.00046608 RMS(Int)=  0.49791416
 Iteration 45 RMS(Cart)=  0.00045490 RMS(Int)=  0.49236194
 Iteration 46 RMS(Cart)=  0.00044601 RMS(Int)=  0.48672768
 Iteration 47 RMS(Cart)=  0.00043899 RMS(Int)=  0.48092949
 Iteration 48 RMS(Cart)=  0.00043389 RMS(Int)=  0.47482205
 Iteration 49 RMS(Cart)=  0.00043097 RMS(Int)=  0.46806945
 Iteration 50 RMS(Cart)=  0.00043139 RMS(Int)=  0.45945377
 Iteration 51 RMS(Cart)=  0.00044015 RMS(Int)=  0.41676168
 Iteration 52 RMS(Cart)=  0.00059283 RMS(Int)=  0.69548536
 Iteration 53 RMS(Cart)=  0.00865771 RMS(Int)=  0.68996217
 Iteration 54 RMS(Cart)=  0.00164092 RMS(Int)=  0.62077847
 Iteration 55 RMS(Cart)=  0.00268587 RMS(Int)=  0.57236036
 Iteration 56 RMS(Cart)=  0.00113645 RMS(Int)=  0.55714124
 Iteration 57 RMS(Cart)=  0.00061209 RMS(Int)=  0.54950413
 Iteration 58 RMS(Cart)=  0.00050845 RMS(Int)=  0.54318440
 Iteration 59 RMS(Cart)=  0.00046715 RMS(Int)=  0.53734222
 Iteration 60 RMS(Cart)=  0.00044548 RMS(Int)=  0.53171359
 Iteration 61 RMS(Cart)=  0.00043257 RMS(Int)=  0.52617361
 Iteration 62 RMS(Cart)=  0.00042448 RMS(Int)=  0.52064081
 Iteration 63 RMS(Cart)=  0.00041954 RMS(Int)=  0.51504161
 Iteration 64 RMS(Cart)=  0.00041706 RMS(Int)=  0.50928376
 Iteration 65 RMS(Cart)=  0.00041675 RMS(Int)=  0.50321124
 Iteration 66 RMS(Cart)=  0.00041902 RMS(Int)=  0.49646356
 Iteration 67 RMS(Cart)=  0.00042543 RMS(Int)=  0.48767661
 Iteration 68 RMS(Cart)=  0.00044286 RMS(Int)=  0.38960269
 Iteration 69 RMS(Cart)=  0.00093320 RMS(Int)=  0.72278579
 Iteration 70 RMS(Cart)=  0.01356529 RMS(Int)=  0.71347138
 Iteration 71 RMS(Cart)=  0.00331215 RMS(Int)=  0.64510845
 Iteration 72 RMS(Cart)=  0.00381056 RMS(Int)=  0.59362958
 Iteration 73 RMS(Cart)=  0.00258399 RMS(Int)=  0.56209598
 Iteration 74 RMS(Cart)=  0.00138573 RMS(Int)=  0.54651938
 Iteration 75 RMS(Cart)=  0.00083943 RMS(Int)=  0.53735733
 Iteration 76 RMS(Cart)=  0.00065116 RMS(Int)=  0.53022555
 Iteration 77 RMS(Cart)=  0.00056910 RMS(Int)=  0.52390812
 Iteration 78 RMS(Cart)=  0.00052413 RMS(Int)=  0.51799096
 Iteration 79 RMS(Cart)=  0.00049555 RMS(Int)=  0.51229053
 Iteration 80 RMS(Cart)=  0.00047556 RMS(Int)=  0.50670674
 Iteration 81 RMS(Cart)=  0.00046072 RMS(Int)=  0.50117354
 Iteration 82 RMS(Cart)=  0.00044927 RMS(Int)=  0.49563738
 Iteration 83 RMS(Cart)=  0.00044028 RMS(Int)=  0.49004366
 Iteration 84 RMS(Cart)=  0.00043329 RMS(Int)=  0.48432191
 Iteration 85 RMS(Cart)=  0.00042802 RMS(Int)=  0.47835788
 Iteration 86 RMS(Cart)=  0.00042478 RMS(Int)=  0.47191500
 Iteration 87 RMS(Cart)=  0.00042422 RMS(Int)=  0.46429841
 Iteration 88 RMS(Cart)=  0.00042911 RMS(Int)=  0.45060122
 Iteration 89 RMS(Cart)=  0.00046031 RMS(Int)=  0.65794058
 Iteration 90 RMS(Cart)=  0.00645441 RMS(Int)=  0.65414153
 Iteration 91 RMS(Cart)=  0.00124064 RMS(Int)=  0.58502938
 Iteration 92 RMS(Cart)=  0.00158172 RMS(Int)=  0.55835376
 Iteration 93 RMS(Cart)=  0.00057555 RMS(Int)=  0.55057404
 Iteration 94 RMS(Cart)=  0.00047295 RMS(Int)=  0.54426309
 Iteration 95 RMS(Cart)=  0.00043610 RMS(Int)=  0.53843946
 Iteration 96 RMS(Cart)=  0.00041797 RMS(Int)=  0.53282409
 Iteration 97 RMS(Cart)=  0.00040788 RMS(Int)=  0.52728886
 Iteration 98 RMS(Cart)=  0.00040213 RMS(Int)=  0.52174985
 Iteration 99 RMS(Cart)=  0.00039922 RMS(Int)=  0.51612881
 Iteration100 RMS(Cart)=  0.00039856 RMS(Int)=  0.51032273
 New curvilinear step not converged.
 ITry= 1 IFail=1 DXMaxC= 6.33D-02 DCOld= 1.00D+10 DXMaxT= 3.00D-01 DXLimC= 3.00D+00 Rises=F
 Iteration  1 RMS(Cart)=  0.00476659 RMS(Int)=  1.01642230
 Iteration  2 RMS(Cart)=  0.04280096 RMS(Int)=  1.00223185
 Iteration  3 RMS(Cart)=  0.00562809 RMS(Int)=  0.93562857
 Iteration  4 RMS(Cart)=  0.00595498 RMS(Int)=  0.86699282
 Iteration  5 RMS(Cart)=  0.00601581 RMS(Int)=  0.79983199
 Iteration  6 RMS(Cart)=  0.00569511 RMS(Int)=  0.73554905
 Iteration  7 RMS(Cart)=  0.00499686 RMS(Int)=  0.67704641
 Iteration  8 RMS(Cart)=  0.00396348 RMS(Int)=  0.62916942
 Iteration  9 RMS(Cart)=  0.00268943 RMS(Int)=  0.59695379
 Iteration 10 RMS(Cart)=  0.00152593 RMS(Int)=  0.57949271
 Iteration 11 RMS(Cart)=  0.00090374 RMS(Int)=  0.56941362
 Iteration 12 RMS(Cart)=  0.00067243 RMS(Int)=  0.56188607
 Iteration 13 RMS(Cart)=  0.00057405 RMS(Int)=  0.55536421
 Iteration 14 RMS(Cart)=  0.00052169 RMS(Int)=  0.54932756
 Iteration 15 RMS(Cart)=  0.00048907 RMS(Int)=  0.54355360
 Iteration 16 RMS(Cart)=  0.00046654 RMS(Int)=  0.53792602
 Iteration 17 RMS(Cart)=  0.00044988 RMS(Int)=  0.53237201
 Iteration 18 RMS(Cart)=  0.00043701 RMS(Int)=  0.52683653
 Iteration 19 RMS(Cart)=  0.00042684 RMS(Int)=  0.52126812
 Iteration 20 RMS(Cart)=  0.00041874 RMS(Int)=  0.51560622
 Iteration 21 RMS(Cart)=  0.00041238 RMS(Int)=  0.50976158
 Iteration 22 RMS(Cart)=  0.00040784 RMS(Int)=  0.50356889
 Iteration 23 RMS(Cart)=  0.00040546 RMS(Int)=  0.49662270
 Iteration 24 RMS(Cart)=  0.00040663 RMS(Int)=  0.48724216
 Iteration 25 RMS(Cart)=  0.00041789 RMS(Int)=  0.55967613
 Iteration 26 RMS(Cart)=  0.00163446 RMS(Int)=  0.55813619
 Iteration 27 RMS(Cart)=  0.00034195 RMS(Int)=  0.48774904
 Iteration 28 RMS(Cart)=  0.00034728 RMS(Int)=  0.48184394
 Iteration 29 RMS(Cart)=  0.00035127 RMS(Int)=  0.47544938
 Iteration 30 RMS(Cart)=  0.00035812 RMS(Int)=  0.46780892
 Iteration 31 RMS(Cart)=  0.00037128 RMS(Int)=  0.45278993
 Iteration 32 RMS(Cart)=  0.00042104 RMS(Int)=  0.65665356
 Iteration 33 RMS(Cart)=  0.00592634 RMS(Int)=  0.65182743
 Iteration 34 RMS(Cart)=  0.00129951 RMS(Int)=  0.58246330
 Iteration 35 RMS(Cart)=  0.00082086 RMS(Int)=  0.57052085
 Iteration 36 RMS(Cart)=  0.00054067 RMS(Int)=  0.56300347
 Iteration 37 RMS(Cart)=  0.00046126 RMS(Int)=  0.55661945
 Iteration 38 RMS(Cart)=  0.00042551 RMS(Int)=  0.55070181
 Iteration 39 RMS(Cart)=  0.00040534 RMS(Int)=  0.54501321
 Iteration 40 RMS(Cart)=  0.00039245 RMS(Int)=  0.53943733
 Iteration 41 RMS(Cart)=  0.00038360 RMS(Int)=  0.53390077
 Iteration 42 RMS(Cart)=  0.00037731 RMS(Int)=  0.52834363
 Iteration 43 RMS(Cart)=  0.00037286 RMS(Int)=  0.52270169
 Iteration 44 RMS(Cart)=  0.00036994 RMS(Int)=  0.51688511
 Iteration 45 RMS(Cart)=  0.00036844 RMS(Int)=  0.51073233
 Iteration 46 RMS(Cart)=  0.00036891 RMS(Int)=  0.50385375
 Iteration 47 RMS(Cart)=  0.00037263 RMS(Int)=  0.49468022
 Iteration 48 RMS(Cart)=  0.00038579 RMS(Int)=  0.48206334
 Iteration 49 RMS(Cart)=  0.00026493 RMS(Int)=  0.63010819
 Iteration 50 RMS(Cart)=  0.00386682 RMS(Int)=  0.62464648
 Iteration 51 RMS(Cart)=  0.00085547 RMS(Int)=  0.55568322
 Iteration 52 RMS(Cart)=  0.00039533 RMS(Int)=  0.54986078
 Iteration 53 RMS(Cart)=  0.00038020 RMS(Int)=  0.54422467
 Iteration 54 RMS(Cart)=  0.00037082 RMS(Int)=  0.53867214
 Iteration 55 RMS(Cart)=  0.00036461 RMS(Int)=  0.53313356
 Iteration 56 RMS(Cart)=  0.00036046 RMS(Int)=  0.52754644
 Iteration 57 RMS(Cart)=  0.00035787 RMS(Int)=  0.52183584
 Iteration 58 RMS(Cart)=  0.00035661 RMS(Int)=  0.51588414
 Iteration 59 RMS(Cart)=  0.00035697 RMS(Int)=  0.50944944
 Iteration 60 RMS(Cart)=  0.00035964 RMS(Int)=  0.50181484
 Iteration 61 RMS(Cart)=  0.00036734 RMS(Int)=  0.48765704
 Iteration 62 RMS(Cart)=  0.00040166 RMS(Int)=  0.62110708
 Iteration 63 RMS(Cart)=  0.00564518 RMS(Int)=  0.61728702
 Iteration 64 RMS(Cart)=  0.00110458 RMS(Int)=  0.54786355
 Iteration 65 RMS(Cart)=  0.00120510 RMS(Int)=  0.52710292
 Iteration 66 RMS(Cart)=  0.00050982 RMS(Int)=  0.51964311
 Iteration 67 RMS(Cart)=  0.00042980 RMS(Int)=  0.51342869
 Iteration 68 RMS(Cart)=  0.00039993 RMS(Int)=  0.50764490
 Iteration 69 RMS(Cart)=  0.00038515 RMS(Int)=  0.50204477
 Iteration 70 RMS(Cart)=  0.00037702 RMS(Int)=  0.49650944
 Iteration 71 RMS(Cart)=  0.00037258 RMS(Int)=  0.49095684
 Iteration 72 RMS(Cart)=  0.00037061 RMS(Int)=  0.48530557
 Iteration 73 RMS(Cart)=  0.00037069 RMS(Int)=  0.47944175
 Iteration 74 RMS(Cart)=  0.00037275 RMS(Int)=  0.47314773
 Iteration 75 RMS(Cart)=  0.00037755 RMS(Int)=  0.46582389
 Iteration 76 RMS(Cart)=  0.00038775 RMS(Int)=  0.45389477
 Iteration 77 RMS(Cart)=  0.00042088 RMS(Int)=  0.65220723
 Iteration 78 RMS(Cart)=  0.00565784 RMS(Int)=  0.64824022
 Iteration 79 RMS(Cart)=  0.00122133 RMS(Int)=  0.57874548
 Iteration 80 RMS(Cart)=  0.00070484 RMS(Int)=  0.56858498
 Iteration 81 RMS(Cart)=  0.00050927 RMS(Int)=  0.56145844
 Iteration 82 RMS(Cart)=  0.00044633 RMS(Int)=  0.55522631
 Iteration 83 RMS(Cart)=  0.00041621 RMS(Int)=  0.54938271
 Iteration 84 RMS(Cart)=  0.00039869 RMS(Int)=  0.54373220
 Iteration 85 RMS(Cart)=  0.00038730 RMS(Int)=  0.53817294
 Iteration 86 RMS(Cart)=  0.00037944 RMS(Int)=  0.53263657
 Iteration 87 RMS(Cart)=  0.00037387 RMS(Int)=  0.52706330
 Iteration 88 RMS(Cart)=  0.00037002 RMS(Int)=  0.52138422
 Iteration 89 RMS(Cart)=  0.00036758 RMS(Int)=  0.51549614
 Iteration 90 RMS(Cart)=  0.00036675 RMS(Int)=  0.50919915
 Iteration 91 RMS(Cart)=  0.00036803 RMS(Int)=  0.50195791
 Iteration 92 RMS(Cart)=  0.00037339 RMS(Int)=  0.49094363
 Iteration 93 RMS(Cart)=  0.00039416 RMS(Int)=  0.61172979
 Iteration 94 RMS(Cart)=  0.00512642 RMS(Int)=  0.60896498
 Iteration 95 RMS(Cart)=  0.00098982 RMS(Int)=  0.54005391
 Iteration 96 RMS(Cart)=  0.00086294 RMS(Int)=  0.52582105
 Iteration 97 RMS(Cart)=  0.00047203 RMS(Int)=  0.51873618
 Iteration 98 RMS(Cart)=  0.00041012 RMS(Int)=  0.51264807
 Iteration 99 RMS(Cart)=  0.00038599 RMS(Int)=  0.50692124
 Iteration100 RMS(Cart)=  0.00037405 RMS(Int)=  0.50134564
 New curvilinear step not converged.
 ITry= 2 IFail=1 DXMaxC= 5.92D-02 DCOld= 1.00D+10 DXMaxT= 3.00D-01 DXLimC= 3.00D+00 Rises=F
 Iteration  1 RMS(Cart)=  0.00432442 RMS(Int)=  1.04357231
 Iteration  2 RMS(Cart)=  0.03880342 RMS(Int)=  1.03002640
 Iteration  3 RMS(Cart)=  0.00522376 RMS(Int)=  0.96330219
 Iteration  4 RMS(Cart)=  0.00557183 RMS(Int)=  0.89443168
 Iteration  5 RMS(Cart)=  0.00562536 RMS(Int)=  0.82699860
 Iteration  6 RMS(Cart)=  0.00531449 RMS(Int)=  0.76254492
 Iteration  7 RMS(Cart)=  0.00464329 RMS(Int)=  0.70418853
 Iteration  8 RMS(Cart)=  0.00365249 RMS(Int)=  0.65697181
 Iteration  9 RMS(Cart)=  0.00244386 RMS(Int)=  0.62578336
 Iteration 10 RMS(Cart)=  0.00137377 RMS(Int)=  0.60905484
 Iteration 11 RMS(Cart)=  0.00082498 RMS(Int)=  0.59923968
 Iteration 12 RMS(Cart)=  0.00062213 RMS(Int)=  0.59180112
 Iteration 13 RMS(Cart)=  0.00053440 RMS(Int)=  0.58531419
 Iteration 14 RMS(Cart)=  0.00048705 RMS(Int)=  0.57929183
 Iteration 15 RMS(Cart)=  0.00045727 RMS(Int)=  0.57352263
 Iteration 16 RMS(Cart)=  0.00043655 RMS(Int)=  0.56789460
 Iteration 17 RMS(Cart)=  0.00042117 RMS(Int)=  0.56233674
 Iteration 18 RMS(Cart)=  0.00040925 RMS(Int)=  0.55679464
 Iteration 19 RMS(Cart)=  0.00039980 RMS(Int)=  0.55121657
 Iteration 20 RMS(Cart)=  0.00039227 RMS(Int)=  0.54554072
 Iteration 21 RMS(Cart)=  0.00038636 RMS(Int)=  0.53967458
 Iteration 22 RMS(Cart)=  0.00038217 RMS(Int)=  0.53344388
 Iteration 23 RMS(Cart)=  0.00038005 RMS(Int)=  0.52641026
 Iteration 24 RMS(Cart)=  0.00038143 RMS(Int)=  0.51664135
 Iteration 25 RMS(Cart)=  0.00039337 RMS(Int)=  0.56684332
 Iteration 26 RMS(Cart)=  0.00394979 RMS(Int)=  0.56501347
 Iteration 27 RMS(Cart)=  0.00076812 RMS(Int)=  0.49684172
 Iteration 28 RMS(Cart)=  0.00044352 RMS(Int)=  0.48943557
 Iteration 29 RMS(Cart)=  0.00037615 RMS(Int)=  0.48326924
 Iteration 30 RMS(Cart)=  0.00035252 RMS(Int)=  0.47751265
 Iteration 31 RMS(Cart)=  0.00034156 RMS(Int)=  0.47192432
 Iteration 32 RMS(Cart)=  0.00033609 RMS(Int)=  0.46638705
 Iteration 33 RMS(Cart)=  0.00033366 RMS(Int)=  0.46081694
 Iteration 34 RMS(Cart)=  0.00033331 RMS(Int)=  0.45512575
 Iteration 35 RMS(Cart)=  0.00033476 RMS(Int)=  0.44918113
 Iteration 36 RMS(Cart)=  0.00033808 RMS(Int)=  0.44270885
 Iteration 37 RMS(Cart)=  0.00034427 RMS(Int)=  0.43484304
 Iteration 38 RMS(Cart)=  0.00035707 RMS(Int)=  0.41675556
 Iteration 39 RMS(Cart)=  0.00041748 RMS(Int)=  0.69353543
 Iteration 40 RMS(Cart)=  0.00596728 RMS(Int)=  0.68828476
 Iteration 41 RMS(Cart)=  0.00133042 RMS(Int)=  0.61885571
 Iteration 42 RMS(Cart)=  0.00097140 RMS(Int)=  0.60351296
 Iteration 43 RMS(Cart)=  0.00055707 RMS(Int)=  0.59534217
 Iteration 44 RMS(Cart)=  0.00045550 RMS(Int)=  0.58871653
 Iteration 45 RMS(Cart)=  0.00041331 RMS(Int)=  0.58267954
 Iteration 46 RMS(Cart)=  0.00039044 RMS(Int)=  0.57692528
 Iteration 47 RMS(Cart)=  0.00037611 RMS(Int)=  0.57131454
 Iteration 48 RMS(Cart)=  0.00036634 RMS(Int)=  0.56576551
 Iteration 49 RMS(Cart)=  0.00035935 RMS(Int)=  0.56021675
 Iteration 50 RMS(Cart)=  0.00035430 RMS(Int)=  0.55460806
 Iteration 51 RMS(Cart)=  0.00035076 RMS(Int)=  0.54886237
 Iteration 52 RMS(Cart)=  0.00034857 RMS(Int)=  0.54285294
 Iteration 53 RMS(Cart)=  0.00034803 RMS(Int)=  0.53630745
 Iteration 54 RMS(Cart)=  0.00034990 RMS(Int)=  0.52836085
 Iteration 55 RMS(Cart)=  0.00035728 RMS(Int)=  0.51036814
 Iteration 56 RMS(Cart)=  0.00040288 RMS(Int)=  0.59975620
 Iteration 57 RMS(Cart)=  0.00578111 RMS(Int)=  0.59538898
 Iteration 58 RMS(Cart)=  0.00113621 RMS(Int)=  0.52581941
 Iteration 59 RMS(Cart)=  0.00145996 RMS(Int)=  0.49779514
 Iteration 60 RMS(Cart)=  0.00051973 RMS(Int)=  0.48987701
 Iteration 61 RMS(Cart)=  0.00042327 RMS(Int)=  0.48351353
 Iteration 62 RMS(Cart)=  0.00038901 RMS(Int)=  0.47765990
 Iteration 63 RMS(Cart)=  0.00037216 RMS(Int)=  0.47202517
 Iteration 64 RMS(Cart)=  0.00036269 RMS(Int)=  0.46647769
 Iteration 65 RMS(Cart)=  0.00035720 RMS(Int)=  0.46093275
 Iteration 66 RMS(Cart)=  0.00035427 RMS(Int)=  0.45531292
 Iteration 67 RMS(Cart)=  0.00035330 RMS(Int)=  0.44951841
 Iteration 68 RMS(Cart)=  0.00035429 RMS(Int)=  0.44337343
 Iteration 69 RMS(Cart)=  0.00035753 RMS(Int)=  0.43644709
 Iteration 70 RMS(Cart)=  0.00036478 RMS(Int)=  0.42686430
 Iteration 71 RMS(Cart)=  0.00038449 RMS(Int)=  0.65503312
 Iteration 72 RMS(Cart)=  0.00340803 RMS(Int)=  0.65293777
 Iteration 73 RMS(Cart)=  0.00070691 RMS(Int)=  0.58300302
 Iteration 74 RMS(Cart)=  0.00036199 RMS(Int)=  0.57728830
 Iteration 75 RMS(Cart)=  0.00035111 RMS(Int)=  0.57169989
 Iteration 76 RMS(Cart)=  0.00034402 RMS(Int)=  0.56615672
 Iteration 77 RMS(Cart)=  0.00033929 RMS(Int)=  0.56059530
 Iteration 78 RMS(Cart)=  0.00033620 RMS(Int)=  0.55494911
 Iteration 79 RMS(Cart)=  0.00033446 RMS(Int)=  0.54912578
 Iteration 80 RMS(Cart)=  0.00033399 RMS(Int)=  0.54295870
 Iteration 81 RMS(Cart)=  0.00033531 RMS(Int)=  0.53604128
 Iteration 82 RMS(Cart)=  0.00033970 RMS(Int)=  0.52668078
 Iteration 83 RMS(Cart)=  0.00035347 RMS(Int)=  0.52852047
 Iteration 84 RMS(Cart)=  0.00149732 RMS(Int)=  0.52695326
 Iteration 85 RMS(Cart)=  0.00031561 RMS(Int)=  0.45653997
 Iteration 86 RMS(Cart)=  0.00032528 RMS(Int)=  0.45059635
 Iteration 87 RMS(Cart)=  0.00032924 RMS(Int)=  0.44411998
 Iteration 88 RMS(Cart)=  0.00033605 RMS(Int)=  0.43622648
 Iteration 89 RMS(Cart)=  0.00034953 RMS(Int)=  0.41748411
 Iteration 90 RMS(Cart)=  0.00041350 RMS(Int)=  0.69295888
 Iteration 91 RMS(Cart)=  0.00592087 RMS(Int)=  0.68765774
 Iteration 92 RMS(Cart)=  0.00132065 RMS(Int)=  0.61823599
 Iteration 93 RMS(Cart)=  0.00094951 RMS(Int)=  0.60326562
 Iteration 94 RMS(Cart)=  0.00055170 RMS(Int)=  0.59516329
 Iteration 95 RMS(Cart)=  0.00045311 RMS(Int)=  0.58856141
 Iteration 96 RMS(Cart)=  0.00041183 RMS(Int)=  0.58253562
 Iteration 97 RMS(Cart)=  0.00038936 RMS(Int)=  0.57678723
 Iteration 98 RMS(Cart)=  0.00037526 RMS(Int)=  0.57117943
 Iteration 99 RMS(Cart)=  0.00036564 RMS(Int)=  0.56563131
 Iteration100 RMS(Cart)=  0.00035876 RMS(Int)=  0.56008159
 New curvilinear step not converged.
 ITry= 3 IFail=1 DXMaxC= 4.85D-02 DCOld= 1.00D+10 DXMaxT= 3.00D-01 DXLimC= 3.00D+00 Rises=F
 Iteration  1 RMS(Cart)=  0.00388004 RMS(Int)=  1.07084166
 Iteration  2 RMS(Cart)=  0.03482644 RMS(Int)=  1.05791598
 Iteration  3 RMS(Cart)=  0.00482516 RMS(Int)=  0.99107767
 Iteration  4 RMS(Cart)=  0.00518464 RMS(Int)=  0.92198911
 Iteration  5 RMS(Cart)=  0.00523087 RMS(Int)=  0.85431201
 Iteration  6 RMS(Cart)=  0.00493097 RMS(Int)=  0.78973116
 Iteration  7 RMS(Cart)=  0.00428871 RMS(Int)=  0.73158986
 Iteration  8 RMS(Cart)=  0.00334277 RMS(Int)=  0.68513402
 Iteration  9 RMS(Cart)=  0.00220246 RMS(Int)=  0.65506091
 Iteration 10 RMS(Cart)=  0.00122730 RMS(Int)=  0.63908443
 Iteration 11 RMS(Cart)=  0.00074883 RMS(Int)=  0.62953546
 Iteration 12 RMS(Cart)=  0.00057254 RMS(Int)=  0.62218938
 Iteration 13 RMS(Cart)=  0.00049491 RMS(Int)=  0.61574035
 Iteration 14 RMS(Cart)=  0.00045240 RMS(Int)=  0.60973459
 Iteration 15 RMS(Cart)=  0.00042539 RMS(Int)=  0.60397190
 Iteration 16 RMS(Cart)=  0.00040648 RMS(Int)=  0.59834474
 Iteration 17 RMS(Cart)=  0.00039236 RMS(Int)=  0.59278397
 Iteration 18 RMS(Cart)=  0.00038139 RMS(Int)=  0.58723578
 Iteration 19 RMS(Cart)=  0.00037267 RMS(Int)=  0.58164814
 Iteration 20 RMS(Cart)=  0.00036572 RMS(Int)=  0.57595775
 Iteration 21 RMS(Cart)=  0.00036033 RMS(Int)=  0.57006820
 Iteration 22 RMS(Cart)=  0.00035644 RMS(Int)=  0.56379473
 Iteration 23 RMS(Cart)=  0.00035459 RMS(Int)=  0.55665856
 Iteration 24 RMS(Cart)=  0.00035620 RMS(Int)=  0.54638628
 Iteration 25 RMS(Cart)=  0.00036903 RMS(Int)=  0.54907755
 Iteration 26 RMS(Cart)=  0.00445068 RMS(Int)=  0.54687522
 Iteration 27 RMS(Cart)=  0.00085847 RMS(Int)=  0.47836404
 Iteration 28 RMS(Cart)=  0.00075316 RMS(Int)=  0.46402788
 Iteration 29 RMS(Cart)=  0.00041001 RMS(Int)=  0.45694481
 Iteration 30 RMS(Cart)=  0.00035678 RMS(Int)=  0.45085181
 Iteration 31 RMS(Cart)=  0.00033606 RMS(Int)=  0.44511801
 Iteration 32 RMS(Cart)=  0.00032583 RMS(Int)=  0.43953470
 Iteration 33 RMS(Cart)=  0.00032042 RMS(Int)=  0.43399401
 Iteration 34 RMS(Cart)=  0.00031779 RMS(Int)=  0.42841487
 Iteration 35 RMS(Cart)=  0.00031708 RMS(Int)=  0.42270881
 Iteration 36 RMS(Cart)=  0.00031808 RMS(Int)=  0.41673984
 Iteration 37 RMS(Cart)=  0.00032089 RMS(Int)=  0.41022015
 Iteration 38 RMS(Cart)=  0.00032648 RMS(Int)=  0.40221187
 Iteration 39 RMS(Cart)=  0.00033866 RMS(Int)=  0.38142982
 Iteration 40 RMS(Cart)=  0.00040636 RMS(Int)=  0.72916398
 Iteration 41 RMS(Cart)=  0.00584811 RMS(Int)=  0.72371459
 Iteration 42 RMS(Cart)=  0.00132055 RMS(Int)=  0.65418501
 Iteration 43 RMS(Cart)=  0.00105435 RMS(Int)=  0.63611445
 Iteration 44 RMS(Cart)=  0.00055687 RMS(Int)=  0.62744012
 Iteration 45 RMS(Cart)=  0.00044150 RMS(Int)=  0.62063763
 Iteration 46 RMS(Cart)=  0.00039589 RMS(Int)=  0.61451407
 Iteration 47 RMS(Cart)=  0.00037179 RMS(Int)=  0.60871120
 Iteration 48 RMS(Cart)=  0.00035686 RMS(Int)=  0.60307280
 Iteration 49 RMS(Cart)=  0.00034672 RMS(Int)=  0.59751078
 Iteration 50 RMS(Cart)=  0.00033946 RMS(Int)=  0.59196195
 Iteration 51 RMS(Cart)=  0.00033414 RMS(Int)=  0.58636768
 Iteration 52 RMS(Cart)=  0.00033032 RMS(Int)=  0.58065696
 Iteration 53 RMS(Cart)=  0.00032782 RMS(Int)=  0.57471898
 Iteration 54 RMS(Cart)=  0.00032667 RMS(Int)=  0.56833100
 Iteration 55 RMS(Cart)=  0.00032760 RMS(Int)=  0.56085997
 Iteration 56 RMS(Cart)=  0.00033257 RMS(Int)=  0.54830395
 Iteration 57 RMS(Cart)=  0.00035561 RMS(Int)=  0.55822926
 Iteration 58 RMS(Cart)=  0.00489887 RMS(Int)=  0.55495120
 Iteration 59 RMS(Cart)=  0.00095673 RMS(Int)=  0.48577665
 Iteration 60 RMS(Cart)=  0.00103920 RMS(Int)=  0.46521151
 Iteration 61 RMS(Cart)=  0.00044207 RMS(Int)=  0.45777665
 Iteration 62 RMS(Cart)=  0.00037393 RMS(Int)=  0.45156325
 Iteration 63 RMS(Cart)=  0.00034839 RMS(Int)=  0.44577459
 Iteration 64 RMS(Cart)=  0.00033573 RMS(Int)=  0.44016748
 Iteration 65 RMS(Cart)=  0.00032877 RMS(Int)=  0.43462414
 Iteration 66 RMS(Cart)=  0.00032499 RMS(Int)=  0.42906264
 Iteration 67 RMS(Cart)=  0.00032332 RMS(Int)=  0.42340092
 Iteration 68 RMS(Cart)=  0.00032344 RMS(Int)=  0.41752303
 Iteration 69 RMS(Cart)=  0.00032528 RMS(Int)=  0.41120492
 Iteration 70 RMS(Cart)=  0.00032955 RMS(Int)=  0.40381818
 Iteration 71 RMS(Cart)=  0.00033869 RMS(Int)=  0.39139527
 Iteration 72 RMS(Cart)=  0.00036966 RMS(Int)=  0.71532455
 Iteration 73 RMS(Cart)=  0.00504193 RMS(Int)=  0.71137458
 Iteration 74 RMS(Cart)=  0.00110329 RMS(Int)=  0.64165280
 Iteration 75 RMS(Cart)=  0.00065779 RMS(Int)=  0.63076841
 Iteration 76 RMS(Cart)=  0.00045761 RMS(Int)=  0.62346389
 Iteration 77 RMS(Cart)=  0.00039664 RMS(Int)=  0.61715077
 Iteration 78 RMS(Cart)=  0.00036817 RMS(Int)=  0.61126049
 Iteration 79 RMS(Cart)=  0.00035178 RMS(Int)=  0.60558019
 Iteration 80 RMS(Cart)=  0.00034117 RMS(Int)=  0.60000191
 Iteration 81 RMS(Cart)=  0.00033384 RMS(Int)=  0.59445514
 Iteration 82 RMS(Cart)=  0.00032862 RMS(Int)=  0.58888013
 Iteration 83 RMS(Cart)=  0.00032494 RMS(Int)=  0.58321021
 Iteration 84 RMS(Cart)=  0.00032257 RMS(Int)=  0.57734846
 Iteration 85 RMS(Cart)=  0.00032146 RMS(Int)=  0.57111350
 Iteration 86 RMS(Cart)=  0.00032217 RMS(Int)=  0.56404233
 Iteration 87 RMS(Cart)=  0.00032607 RMS(Int)=  0.55399302
 Iteration 88 RMS(Cart)=  0.00034060 RMS(Int)=  0.53884284
 Iteration 89 RMS(Cart)=  0.00387252 RMS(Int)=  0.53680672
 Iteration 90 RMS(Cart)=  0.00075566 RMS(Int)=  0.46807045
 Iteration 91 RMS(Cart)=  0.00045684 RMS(Int)=  0.45989399
 Iteration 92 RMS(Cart)=  0.00036491 RMS(Int)=  0.45353035
 Iteration 93 RMS(Cart)=  0.00033659 RMS(Int)=  0.44769138
 Iteration 94 RMS(Cart)=  0.00032386 RMS(Int)=  0.44206648
 Iteration 95 RMS(Cart)=  0.00031740 RMS(Int)=  0.43651995
 Iteration 96 RMS(Cart)=  0.00031424 RMS(Int)=  0.43096404
 Iteration 97 RMS(Cart)=  0.00031320 RMS(Int)=  0.42531559
 Iteration 98 RMS(Cart)=  0.00031384 RMS(Int)=  0.41946134
 Iteration 99 RMS(Cart)=  0.00031624 RMS(Int)=  0.41318761
 Iteration100 RMS(Cart)=  0.00032089 RMS(Int)=  0.40591295
 New curvilinear step not converged.
 ITry= 4 IFail=1 DXMaxC= 4.49D-02 DCOld= 1.00D+10 DXMaxT= 3.00D-01 DXLimC= 3.00D+00 Rises=F
 Iteration  1 RMS(Cart)=  0.00344008 RMS(Int)=  1.09814982
 Iteration  2 RMS(Cart)=  0.03086562 RMS(Int)=  1.08582560
 Iteration  3 RMS(Cart)=  0.00442882 RMS(Int)=  1.01887274
 Iteration  4 RMS(Cart)=  0.00479405 RMS(Int)=  0.94958478
 Iteration  5 RMS(Cart)=  0.00483254 RMS(Int)=  0.88169725
 Iteration  6 RMS(Cart)=  0.00454423 RMS(Int)=  0.81704576
 Iteration  7 RMS(Cart)=  0.00393211 RMS(Int)=  0.75921680
 Iteration  8 RMS(Cart)=  0.00303265 RMS(Int)=  0.71367116
 Iteration  9 RMS(Cart)=  0.00196350 RMS(Int)=  0.68484912
 Iteration 10 RMS(Cart)=  0.00108552 RMS(Int)=  0.66966430
 Iteration 11 RMS(Cart)=  0.00067478 RMS(Int)=  0.66039137
 Iteration 12 RMS(Cart)=  0.00052349 RMS(Int)=  0.65314430
 Iteration 13 RMS(Cart)=  0.00045552 RMS(Int)=  0.64673762
 Iteration 14 RMS(Cart)=  0.00041772 RMS(Int)=  0.64075153
 Iteration 15 RMS(Cart)=  0.00039344 RMS(Int)=  0.63499751
 Iteration 16 RMS(Cart)=  0.00037631 RMS(Int)=  0.62937270
 Iteration 17 RMS(Cart)=  0.00036346 RMS(Int)=  0.62380993
 Iteration 18 RMS(Cart)=  0.00035344 RMS(Int)=  0.61825598
 Iteration 19 RMS(Cart)=  0.00034547 RMS(Int)=  0.61265840
 Iteration 20 RMS(Cart)=  0.00033911 RMS(Int)=  0.60695210
 Iteration 21 RMS(Cart)=  0.00033418 RMS(Int)=  0.60103597
 Iteration 22 RMS(Cart)=  0.00033066 RMS(Int)=  0.59471206
 Iteration 23 RMS(Cart)=  0.00032910 RMS(Int)=  0.58744945
 Iteration 24 RMS(Cart)=  0.00033098 RMS(Int)=  0.57647466
 Iteration 25 RMS(Cart)=  0.00034512 RMS(Int)=  0.52499016
 Iteration 26 RMS(Cart)=  0.00450785 RMS(Int)=  0.52241595
 Iteration 27 RMS(Cart)=  0.00087250 RMS(Int)=  0.45368912
 Iteration 28 RMS(Cart)=  0.00094826 RMS(Int)=  0.43335189
 Iteration 29 RMS(Cart)=  0.00040563 RMS(Int)=  0.42595695
 Iteration 30 RMS(Cart)=  0.00034440 RMS(Int)=  0.41975478
 Iteration 31 RMS(Cart)=  0.00032138 RMS(Int)=  0.41396921
 Iteration 32 RMS(Cart)=  0.00030998 RMS(Int)=  0.40836152
 Iteration 33 RMS(Cart)=  0.00030375 RMS(Int)=  0.40281525
 Iteration 34 RMS(Cart)=  0.00030040 RMS(Int)=  0.39724859
 Iteration 35 RMS(Cart)=  0.00029898 RMS(Int)=  0.39157867
 Iteration 36 RMS(Cart)=  0.00029915 RMS(Int)=  0.38568700
 Iteration 37 RMS(Cart)=  0.00030102 RMS(Int)=  0.37934126
 Iteration 38 RMS(Cart)=  0.00030513 RMS(Int)=  0.37187664
 Iteration 39 RMS(Cart)=  0.00031394 RMS(Int)=  0.35878487
 Iteration 40 RMS(Cart)=  0.00034534 RMS(Int)=  0.74869185
 Iteration 41 RMS(Cart)=  0.00477250 RMS(Int)=  0.74462830
 Iteration 42 RMS(Cart)=  0.00105468 RMS(Int)=  0.67481977
 Iteration 43 RMS(Cart)=  0.00065278 RMS(Int)=  0.66313313
 Iteration 44 RMS(Cart)=  0.00043617 RMS(Int)=  0.65564979
 Iteration 45 RMS(Cart)=  0.00037373 RMS(Int)=  0.64926471
 Iteration 46 RMS(Cart)=  0.00034530 RMS(Int)=  0.64333639
 Iteration 47 RMS(Cart)=  0.00032913 RMS(Int)=  0.63763397
 Iteration 48 RMS(Cart)=  0.00031873 RMS(Int)=  0.63204324
 Iteration 49 RMS(Cart)=  0.00031155 RMS(Int)=  0.62649153
 Iteration 50 RMS(Cart)=  0.00030641 RMS(Int)=  0.62091893
 Iteration 51 RMS(Cart)=  0.00030275 RMS(Int)=  0.61526064
 Iteration 52 RMS(Cart)=  0.00030033 RMS(Int)=  0.60942510
 Iteration 53 RMS(Cart)=  0.00029906 RMS(Int)=  0.60324609
 Iteration 54 RMS(Cart)=  0.00029941 RMS(Int)=  0.59631711
 Iteration 55 RMS(Cart)=  0.00030246 RMS(Int)=  0.58694604
 Iteration 56 RMS(Cart)=  0.00031361 RMS(Int)=  0.46706234
 Iteration 57 RMS(Cart)=  0.00137608 RMS(Int)=  0.46557697
 Iteration 58 RMS(Cart)=  0.00029077 RMS(Int)=  0.39512114
 Iteration 59 RMS(Cart)=  0.00028217 RMS(Int)=  0.38926781
 Iteration 60 RMS(Cart)=  0.00028494 RMS(Int)=  0.38299291
 Iteration 61 RMS(Cart)=  0.00028980 RMS(Int)=  0.37570544
 Iteration 62 RMS(Cart)=  0.00029888 RMS(Int)=  0.36391106
 Iteration 63 RMS(Cart)=  0.00032597 RMS(Int)=  0.74160940
 Iteration 64 RMS(Cart)=  0.00436500 RMS(Int)=  0.73806064
 Iteration 65 RMS(Cart)=  0.00095268 RMS(Int)=  0.66818829
 Iteration 66 RMS(Cart)=  0.00050069 RMS(Int)=  0.65934410
 Iteration 67 RMS(Cart)=  0.00039217 RMS(Int)=  0.65254253
 Iteration 68 RMS(Cart)=  0.00035217 RMS(Int)=  0.64643200
 Iteration 69 RMS(Cart)=  0.00033174 RMS(Int)=  0.64063958
 Iteration 70 RMS(Cart)=  0.00031941 RMS(Int)=  0.63500673
 Iteration 71 RMS(Cart)=  0.00031122 RMS(Int)=  0.62944462
 Iteration 72 RMS(Cart)=  0.00030550 RMS(Int)=  0.62388900
 Iteration 73 RMS(Cart)=  0.00030146 RMS(Int)=  0.61827883
 Iteration 74 RMS(Cart)=  0.00029871 RMS(Int)=  0.61253778
 Iteration 75 RMS(Cart)=  0.00029708 RMS(Int)=  0.60654225
 Iteration 76 RMS(Cart)=  0.00029683 RMS(Int)=  0.60003062
 Iteration 77 RMS(Cart)=  0.00029860 RMS(Int)=  0.59219116
 Iteration 78 RMS(Cart)=  0.00030486 RMS(Int)=  0.57574918
 Iteration 79 RMS(Cart)=  0.00033941 RMS(Int)=  0.53353617
 Iteration 80 RMS(Cart)=  0.00484108 RMS(Int)=  0.52949027
 Iteration 81 RMS(Cart)=  0.00095929 RMS(Int)=  0.45994938
 Iteration 82 RMS(Cart)=  0.00116791 RMS(Int)=  0.43433622
 Iteration 83 RMS(Cart)=  0.00043509 RMS(Int)=  0.42660563
 Iteration 84 RMS(Cart)=  0.00035987 RMS(Int)=  0.42029154
 Iteration 85 RMS(Cart)=  0.00033248 RMS(Int)=  0.41445447
 Iteration 86 RMS(Cart)=  0.00031891 RMS(Int)=  0.40882298
 Iteration 87 RMS(Cart)=  0.00031130 RMS(Int)=  0.40327110
 Iteration 88 RMS(Cart)=  0.00030694 RMS(Int)=  0.39771546
 Iteration 89 RMS(Cart)=  0.00030470 RMS(Int)=  0.39207729
 Iteration 90 RMS(Cart)=  0.00030411 RMS(Int)=  0.38625175
 Iteration 91 RMS(Cart)=  0.00030522 RMS(Int)=  0.38004778
 Iteration 92 RMS(Cart)=  0.00030834 RMS(Int)=  0.37297512
 Iteration 93 RMS(Cart)=  0.00031524 RMS(Int)=  0.36264130
 Iteration 94 RMS(Cart)=  0.00033529 RMS(Int)=  0.73569907
 Iteration 95 RMS(Cart)=  0.00404443 RMS(Int)=  0.73294370
 Iteration 96 RMS(Cart)=  0.00086984 RMS(Int)=  0.66296332
 Iteration 97 RMS(Cart)=  0.00042105 RMS(Int)=  0.65554614
 Iteration 98 RMS(Cart)=  0.00036244 RMS(Int)=  0.64920145
 Iteration 99 RMS(Cart)=  0.00033610 RMS(Int)=  0.64329794
 Iteration100 RMS(Cart)=  0.00032128 RMS(Int)=  0.63761047
 New curvilinear step not converged.
 ITry= 5 IFail=1 DXMaxC= 3.56D-02 DCOld= 1.00D+10 DXMaxT= 3.00D-01 DXLimC= 3.00D+00 Rises=F
 New curvilinear step failed, DQL= 3.13D+00 SP=-4.16D-01.
 ITry= 6 IFail=1 DXMaxC= 0.00D+00 DCOld= 1.00D+10 DXMaxT= 3.00D-01 DXLimC= 3.00D+00 Rises=F
 New curvilinear step failed, DQL= 3.13D+00 SP=-8.37D-01.
 ITry= 7 IFail=1 DXMaxC= 0.00D+00 DCOld= 1.00D+10 DXMaxT= 3.00D-01 DXLimC= 3.00D+00 Rises=F
 New curvilinear step failed, DQL= 3.13D+00 SP=-9.47D-01.
 ITry= 8 IFail=1 DXMaxC= 0.00D+00 DCOld= 1.00D+10 DXMaxT= 3.00D-01 DXLimC= 3.00D+00 Rises=F
 New curvilinear step failed, DQL= 3.13D+00 SP=-9.64D-01.
 ITry= 9 IFail=1 DXMaxC= 0.00D+00 DCOld= 1.00D+10 DXMaxT= 3.00D-01 DXLimC= 3.00D+00 Rises=F
 New curvilinear step failed, DQL= 3.13D+00 SP=-9.76D-01.
 ITry=10 IFail=1 DXMaxC= 0.00D+00 DCOld= 1.00D+10 DXMaxT= 3.00D-01 DXLimC= 3.00D+00 Rises=F
 RedQX1 iteration     1 Try  1 RMS(Cart)=  0.01042967 RMS(Int)=  0.98811416 XScale=  0.11934301
 RedQX1 iteration     2 Try  1 RMS(Cart)=  0.00208593 RMS(Int)=  0.98975686 XScale=  0.11921317
 RedQX1 iteration     3 Try  1 RMS(Cart)=  0.00041719 RMS(Int)=  0.98987193 XScale=  0.11921027
 RedQX1 iteration     4 Try  1 RMS(Cart)=  0.00008344 RMS(Int)=  0.13191192 XScale=315.29960156
 RedQX1 iteration     4 Try  2 RMS(Cart)=  0.00008344 RMS(Int)=  0.97272703 XScale=  0.12108465
 RedQX1 iteration     5 Try  1 RMS(Cart)=  0.00008330 RMS(Int)=  0.97208743 XScale=  0.12115566
 RedQX1 iteration     6 Try  1 RMS(Cart)=  0.00001666 RMS(Int)=  0.13170668 XScale=208.16991154
 RedQX1 iteration     6 Try  2 RMS(Cart)=  0.00001666 RMS(Int)=  0.13135725 XScale=131.25374713
 RedQX1 iteration     6 Try  3 RMS(Cart)=  0.00001666 RMS(Int)=  0.13062145 XScale= 73.44648738
 RedQX1 iteration     6 Try  4 RMS(Cart)=  0.00001666 RMS(Int)=  0.12802338 XScale= 28.56418860
 RedQX1 iteration     6 Try  5 RMS(Cart)=  0.00001666 RMS(Int)=  0.97217274 XScale=  0.12114618
 RedQX1 iteration     7 Try  1 RMS(Cart)=  0.00001664 RMS(Int)=  0.97206663 XScale=  0.12115797
 RedQX1 iteration     8 Try  1 RMS(Cart)=  0.00000333 RMS(Int)=  0.12644447 XScale= 20.79793813
 RedQX1 iteration     8 Try  2 RMS(Cart)=  0.00000333 RMS(Int)=  0.12323256 XScale= 13.36959696
 RedQX1 iteration     8 Try  3 RMS(Cart)=  0.00000333 RMS(Int)=  0.11314654 XScale=  6.25810872
 RedQX1 iteration     8 Try  4 RMS(Cart)=  0.00000333 RMS(Int)=  0.78831300 XScale=  0.14571900
 RedQX1 iteration     9 Try  1 RMS(Cart)=  0.00000333 RMS(Int)=  0.78795559 XScale=  0.14577650
 RedQX1 iteration    10 Try  1 RMS(Cart)=  0.00000067 RMS(Int)=  0.10785660 XScale=  4.87398758
 RedQX1 iteration    10 Try  2 RMS(Cart)=  0.00000067 RMS(Int)=  0.09869211 XScale=  3.50248938
 RedQX1 iteration    10 Try  3 RMS(Cart)=  0.00000067 RMS(Int)=  0.07945233 XScale=  2.14611380
 RedQX1 iteration    10 Try  4 RMS(Cart)=  0.00000067 RMS(Int)=  0.06503582 XScale=  0.82609268
 RedQX1 iteration    11 Try  1 RMS(Cart)=  0.00000067 RMS(Int)=  0.06503023 XScale=  0.82614115
 RedQX1 iteration    12 Try  1 RMS(Cart)=  0.00000013 RMS(Int)=  0.07304362 XScale=  1.87762654
 RedQX1 iteration    12 Try  2 RMS(Cart)=  0.00000013 RMS(Int)=  0.06541743 XScale=  1.61052540
 RedQX1 iteration    12 Try  3 RMS(Cart)=  0.00000013 RMS(Int)=  0.05716668 XScale=  1.34538538
 RedQX1 iteration    12 Try  4 RMS(Cart)=  0.00000013 RMS(Int)=  0.05227980 XScale=  1.08332448
 RedQX1 iteration    12 Try  5 RMS(Cart)=  0.00000013 RMS(Int)=  0.06495686 XScale=  0.82677852
 RedQX1 iteration    13 Try  1 RMS(Cart)=  0.00000013 RMS(Int)=  0.06495656 XScale=  0.82678110
 RedQX1 iteration    14 Try  1 RMS(Cart)=  0.00000003 RMS(Int)=  0.05271563 XScale=  1.03147110
 B after Tr=    -0.000000   -0.000000   -0.000000
         Rot=    1.000000   -0.000000    0.000000    0.000000 Ang=   0.00 deg.
 Variable       Old X    -DE/DX   Delta X   Delta X   Delta X     New X
                                 (Linear)    (Quad)   (Total)
    R1        2.06454   0.01667   0.00019   0.09337   0.00029   2.06483
    R2        2.02829   0.00079  -0.00003  -0.00020  -0.00000   2.02829
    R3        2.03441  -0.00005  -0.00034  -0.00991  -0.00003   2.03438
    A1        1.60644   0.00590   0.01062  -0.03088  -0.00007   1.60636
    A2        1.53501   0.01607   0.01338   0.05982   0.00022   1.53523
[...]
 Keep R1 and R2 ints in memory in symmetry-blocked form, NReq=21658328.
 Requested convergence on RMS density matrix=1.00D-08 within 900 cycles.
 Requested convergence on MAX density matrix=1.00D-06.
 Requested convergence on             energy=1.00D-06.
 No special actions if energy rises.
 SCF Done:  E(UM062X) =  -39.7663856313     A.U. after    6 cycles
            NFock=  6  Conv=0.27D-08     -V/T= 2.0063
 <Sx>= 0.0000 <Sy>= 0.0000 <Sz>= 0.5000 <S**2>= 0.7567 S= 0.5033
 <L.S>= 0.000000000000E+00
 Annihilation of the first spin contaminant:
 S**2 before annihilation     0.7567,   after     0.7500
 Calling FoFJK, ICntrl=      2127 FMM=F ISym2X=1 I1Cent= 0 IOpClX= 1 NMat=1 NMatS=1 NMatT=0.
 ***** Axes restored to original set *****
 -------------------------------------------------------------------
 Center     Atomic                   Forces (Hartrees/Bohr)
 Number     Number              X              Y              Z
 -------------------------------------------------------------------
      1        6           0.018595754    0.029074629   -0.080238349
      2        1          -0.000041101    0.000027763   -0.000001156
      3        1          -0.009391230   -0.014517314    0.040200069
      4        1          -0.009163424   -0.014585079    0.040039437
 -------------------------------------------------------------------
 Cartesian Forces:  Max     0.080238349 RMS     0.030881728

 GradGradGradGradGradGradGradGradGradGradGradGradGradGradGradGradGradGrad
 Berny optimization.
 Using GDIIS optimizer.
 FormGI is forming the generalized inverse of G from B-inverse, IUseBI=4.
 Internal  Forces:  Max     0.059122880 RMS     0.025607876
 Search for a local minimum.
 Step number  20 out of a maximum of  100
 All quantities printed in internal units (Hartrees-Bohrs-Radians)
 Swapping is turned off.
 Update second derivatives using D2CorX and points   12   13   14   15   16
                                                     17   18   19   20
 DE= -4.19D-08 DEPred=-4.30D-08 R= 9.73D-01
 Trust test= 9.73D-01 RLast= 4.40D-04 DXMaxT set to 5.00D-02
 The second derivative matrix:
                          R1        R2        R3        A1        A2
           R1           0.28258
           R2           0.00857   0.38540
           R3           0.00856  -0.00771   0.37664
           A1           0.01208  -0.00015  -0.03408 -10.61346
           A2           0.01172  -0.02043  -0.01366 -10.75273 -10.60653
           A3           0.02380  -0.02057  -0.04774 -21.36619 -21.35926
           A4           0.00022   0.01974   0.03645   1.67974   1.67927
           D1           0.00000   0.00001   0.00000   0.01872   0.01872
                          A3        A4        D1
           A3         -42.72545
           A4           3.35901   0.28267
           D1           0.03744  -0.00315  -0.00003
 ITU=  0 -1  0 -1  0 -1 -1 -1  0
     Eigenvalues ---  -64.08829   0.00000   0.14106   0.28101   0.37383
     Eigenvalues ---    0.39154
 Eigenvalue     2 is   7.32D-08 Eigenvector:
                          D1        A3        A1        A2        R3
   1                    1.00000   0.00058   0.00030   0.00029   0.00010
                          R1        R2        A4
   1                   -0.00009   0.00002  -0.00000
 Cut down GDIIS temporarily because of the coefficient check. E 4
 DIIS coeff's:      1.07802     -0.07802
 Cosine:  1.000 >  0.970
 Length:  1.000
 GDIIS step was calculated using  2 of the last  9 vectors.
 Iteration  1 RMS(Cart)=  0.00042911 RMS(Int)=  0.00174441
 SLEqS3 Cycle:    15 Max:0.493088E-02 RMS: 844.830     Conv:0.186723E-02
 Iteration  2 RMS(Cart)=  0.00056919 RMS(Int)=  0.00163289
 SLEqS3 Cycle:    29 Max:0.485341E-02 RMS:0.225396E-02 Conv:0.879849E-05
 Iteration  3 RMS(Cart)=  0.00015835 RMS(Int)=  0.00162191
 SLEqS3 Cycle:   121 Max:0.629822E-03 RMS:0.245190E-03 Conv:0.740974E-07
 SLEqS3 Cycle:   121 Max:0.485291E-02 RMS:0.225708E-02 Conv:0.740974E-07
 Iteration  4 RMS(Cart)=  0.00000660 RMS(Int)=  0.00162189
 SLEqS3 Cycle:   121 Max:0.485324E-02 RMS:0.225704E-02 Conv:0.479457E-08
 SLEqS3 Cycle:   121 Max:0.485323E-02 RMS:0.225703E-02 Conv:0.479457E-08
 Iteration  5 RMS(Cart)=  0.00000012 RMS(Int)=  0.00162189
 ClnCor:  largest displacement from symmetrization is 1.85D-08 for atom     1.
 Variable       Old X    -DE/DX   Delta X   Delta X   Delta X     New X
                                 (Linear)    (Quad)   (Total)
    R1        2.11872   0.00000  -0.00002   0.00016   0.00014   2.11886
    R2        2.02831   0.00107  -0.00000   0.00264   0.00000   2.02831
    R3        2.03441  -0.00130   0.00000  -0.00356   0.00000   2.03441
    A1        1.57086   0.02961   0.00002   0.00034  -0.00012   1.57075
    A2        1.57073   0.02951  -0.00002   0.00061   0.00012   1.57085
    A3        3.14159   0.05912  -0.00000   0.00095  -0.00000   3.14159
    A4        3.14159  -0.00000   0.00000  -0.00000  -0.00000   3.14159
    D1       -0.00000  -0.00000   0.00000   0.05169  -0.00000  -0.00000
         Item               Value     Threshold  Converged?
 Maximum Force            0.059123     0.000002     NO 
 RMS     Force            0.025608     0.000001     NO 
 Maximum Displacement     0.000133     0.000006     NO 
 RMS     Displacement     0.000076     0.000004     NO 
 Predicted change in Energy=-1.767661D-08
 GradGradGradGradGradGradGradGradGradGradGradGradGradGradGradGradGradGrad

                          Input orientation:                          
 ---------------------------------------------------------------------
 Center     Atomic      Atomic             Coordinates (Angstroms)
 Number     Number       Type             X           Y           Z
 ---------------------------------------------------------------------
      1          6           0        2.567298    2.686235   -2.178495
      2          1           0        2.830812    3.042964   -3.208304
      3          1           0        3.457706    2.087225   -2.158210
      4          1           0        1.674214    3.287046   -2.198842
 ---------------------------------------------------------------------
                    Distance matrix (angstroms):
                    1          2          3          4
     1  C    0.000000
     2  H    1.121250   0.000000
     3  H    1.073337   1.552138   0.000000
     4  H    1.076562   1.554448   2.149899   0.000000
 Stoichiometry    CH3(2)
 Framework group  CS[SG(CH3)]
 Deg. of freedom     5
 Full point group                 CS      NOp   2
 Largest Abelian subgroup         CS      NOp   2
 Largest concise Abelian subgroup C1      NOp   1
                         Standard orientation:                         
 ---------------------------------------------------------------------
 Center     Atomic      Atomic             Coordinates (Angstroms)
 Number     Number       Type             X           Y           Z
 ---------------------------------------------------------------------
      1          6           0        0.000000   -0.124584   -0.000000
      2          1           0       -0.003225    0.996662    0.000000
      3          1           0       -1.073333   -0.127616   -0.000000
      4          1           0        1.076558   -0.121542    0.000000
 ---------------------------------------------------------------------
 Rotational constants (GHZ):         427.5474353         216.9826363         143.9348973
 Standard basis: CC-pVTZ (5D, 7F)
 There are    57 symmetry adapted cartesian basis functions of A'  symmetry.
 There are    23 symmetry adapted cartesian basis functions of A"  symmetry.
 There are    50 symmetry adapted basis functions of A'  symmetry.
 There are    22 symmetry adapted basis functions of A"  symmetry.
    72 basis functions,   103 primitive gaussians,    80 cartesian basis functions
     5 alpha electrons        4 beta electrons
       nuclear repulsion energy         9.6666045575 Hartrees.
 NAtoms=    4 NActive=    4 NUniq=    4 SFac= 1.00D+00 NAtFMM=   60 NAOKFM=F Big=F
 Integral buffers will be    131072 words long.
 Raffenetti 2 integral format.
 Two-electron integral symmetry is turned on.
 One-electron integrals computed using PRISM.
 NBasis=    72 RedAO= T EigKep=  1.36D-03  NBF=    50    22
 NBsUse=    72 1.00D-06 EigRej= -1.00D+00 NBFU=    50    22
 Initial guess from the checkpoint file:  "/scratch/dinius.ab/QMscratch/Gau-26661.chk"
 B after Tr=    -0.000000   -0.000000    0.000000
         Rot=    1.000000    0.000000   -0.000000    0.000039 Ang=   0.00 deg.
 Initial guess orbital symmetries:
 Alpha Orbitals:
       Occupied  (A') (A') (A') (A') (A")
       Virtual   (A') (A') (A') (A') (A") (A') (A') (A') (A') (A')
                 (A") (A') (A") (A') (A") (A') (A') (A") (A') (A')
                 (A') (A") (A') (A') (A") (A') (A') (A') (A") (A')
                 (A') (A") (A') (A") (A') (A") (A') (A') (A') (A")
                 (A') (A") (A") (A') (A') (A') (A') (A') (A") (A")
                 (A") (A") (A') (A') (A') (A") (A') (A") (A') (A')
                 (A') (A') (A") (A') (A') (A') (A')
 Beta  Orbitals:
       Occupied  (A') (A') (A') (A')
       Virtual   (A") (A') (A') (A') (A') (A') (A") (A') (A') (A')
                 (A') (A") (A') (A") (A') (A") (A') (A") (A') (A')
                 (A') (A") (A') (A') (A') (A') (A") (A') (A') (A")
                 (A') (A') (A') (A") (A") (A') (A") (A') (A') (A")
                 (A') (A') (A") (A") (A') (A') (A') (A') (A') (A")
                 (A") (A") (A") (A') (A') (A') (A') (A") (A") (A')
                 (A') (A') (A') (A") (A') (A') (A') (A')
 Initial guess <Sx>= 0.0000 <Sy>= 0.0000 <Sz>= 0.5000 <S**2>= 0.7567 S= 0.5033
 Keep R1 and R2 ints in memory in symmetry-blocked form, NReq=21658328.
 Requested convergence on RMS density matrix=1.00D-08 within 900 cycles.
 Requested convergence on MAX density matrix=1.00D-06.
 Requested convergence on             energy=1.00D-06.
 No special actions if energy rises.
 SCF Done:  E(UM062X) =  -39.7663856142     A.U. after    5 cycles
            NFock=  5  Conv=0.50D-08     -V/T= 2.0063
 <Sx>= 0.0000 <Sy>= 0.0000 <Sz>= 0.5000 <S**2>= 0.7567 S= 0.5033
 <L.S>= 0.000000000000E+00
 Annihilation of the first spin contaminant:
 S**2 before annihilation     0.7567,   after     0.7500
 Calling FoFJK, ICntrl=      2127 FMM=F ISym2X=1 I1Cent= 0 IOpClX= 1 NMat=1 NMatS=1 NMatT=0.
 ***** Axes restored to original set *****
 -------------------------------------------------------------------
 Center     Atomic                   Forces (Hartrees/Bohr)
 Number     Number              X              Y              Z
 -------------------------------------------------------------------
      1        6           0.018610206    0.029080826   -0.080268897
      2        1          -0.000063211    0.000024079    0.000034337
      3        1          -0.009390314   -0.014520517    0.040205108
      4        1          -0.009156681   -0.014584388    0.040029451
 -------------------------------------------------------------------
 Cartesian Forces:  Max     0.080268897 RMS     0.030888935

 GradGradGradGradGradGradGradGradGradGradGradGradGradGradGradGradGradGrad
 Berny optimization.
 Using GDIIS optimizer.
 FormGI is forming the generalized inverse of G from B-inverse, IUseBI=4.
 Internal  Forces:  Max     0.059119164 RMS     0.025606310
 Search for a local minimum.
 Step number  21 out of a maximum of  100
 All quantities printed in internal units (Hartrees-Bohrs-Radians)
 Swapping is turned off.
 Update second derivatives using D2CorX and points   13   14   15   16   17
                                                     18   19   20   21
 DE=  1.71D-08 DEPred=-1.77D-08 R=-9.70D-01
 Trust test=-9.70D-01 RLast= 2.15D-04 DXMaxT set to 5.00D-02
 The second derivative matrix:
                          R1        R2        R3        A1        A2
           R1           0.28269
           R2           0.00859   0.38545
           R3           0.00861  -0.00767   0.37667
           A1           0.00298  -0.00296  -0.03637 -10.66021
           A2           0.00269  -0.02330  -0.01603 -10.79349 -10.64140
           A3           0.00567  -0.02626  -0.05240 -21.45370 -21.43489
           A4           0.00155   0.02014   0.03678   1.68586   1.68455
           D1           0.00002   0.00002   0.00001   0.01880   0.01878
                          A3        A4        D1
           A3         -42.88859
           A4           3.37041   0.28188
           D1           0.03758  -0.00316  -0.00003
 ITU= -1  0 -1  0 -1  0 -1 -1 -1
     Eigenvalues ---  -64.33301   0.00000   0.14103   0.28109   0.37393
     Eigenvalues ---    0.39154
 Eigenvalue     2 is   7.33D-08 Eigenvector:
                          D1        A3        A1        A2        R3
   1                    1.00000   0.00058   0.00030   0.00029   0.00010
                          R1        R2        A4
   1                   -0.00009   0.00002  -0.00000
 Cut down GDIIS permanently because of the redundancy. E 1
 DIIS coeff's:      1.30294     -0.30294
 Cosine:  1.000 >  0.970
 Length:  1.000
 GDIIS step was calculated using  2 of the last  9 vectors.
 Iteration  1 RMS(Cart)=  0.00042040 RMS(Int)=  0.00177662
 SLEqS3 Cycle:    15 Max:0.494734E-02 RMS: 923.001     Conv:0.203989E-02
 Iteration  2 RMS(Cart)=  0.00064587 RMS(Int)=  0.00163847
 SLEqS3 Cycle:   121 Max:0.237195E-03 RMS:0.883127E-04 Conv:0.689724E-05
 SLEqS3 Cycle:    29 Max:0.486187E-02 RMS:0.225479E-02 Conv:0.689724E-05
 Iteration  3 RMS(Cart)=  0.00018203 RMS(Int)=  0.00162332
 SLEqS3 Cycle:   121 Max:0.425592E-03 RMS:0.173297E-03 Conv:0.203494E-07
 SLEqS3 Cycle:   121 Max:0.485657E-02 RMS:0.225775E-02 Conv:0.203494E-07
 Iteration  4 RMS(Cart)=  0.00001027 RMS(Int)=  0.00162326
 SLEqS3 Cycle:   121 Max:0.485689E-02 RMS:0.225805E-02 Conv:0.639195E-08
 SLEqS3 Cycle:   121 Max:0.485689E-02 RMS:0.225805E-02 Conv:0.639195E-08
 Iteration  5 RMS(Cart)=  0.00000086 RMS(Int)=  0.00162326
 ClnCor:  largest displacement from symmetrization is 1.89D-08 for atom     1.
 Variable       Old X    -DE/DX   Delta X   Delta X   Delta X     New X
                                 (Linear)    (Quad)   (Total)
    R1        2.11886  -0.00004   0.00004  -0.00013  -0.00009   2.11877
    R2        2.02831   0.00107   0.00000   0.00263   0.00000   2.02831
    R3        2.03441  -0.00130   0.00000  -0.00358   0.00000   2.03441
    A1        1.57075   0.02963  -0.00004   0.00046  -0.00006   1.57069
    A2        1.57085   0.02949   0.00004   0.00050   0.00006   1.57090
    A3        3.14159   0.05912  -0.00000   0.00095  -0.00000   3.14159
    A4        3.14159  -0.00000  -0.00000  -0.00000   0.00000   3.14159
    D1       -0.00000  -0.00000   0.00000   0.05169   0.00000   0.00000
         Item               Value     Threshold  Converged?
 Maximum Force            0.059119     0.000002     NO 
 RMS     Force            0.025606     0.000001     NO 
 Maximum Displacement     0.000061     0.000006     NO 
 RMS     Displacement     0.000041     0.000004     NO 
 Predicted change in Energy=-6.891897D-09
 GradGradGradGradGradGradGradGradGradGradGradGradGradGradGradGradGradGrad

                          Input orientation:                          
 ---------------------------------------------------------------------
 Center     Atomic      Atomic             Coordinates (Angstroms)
 Number     Number       Type             X           Y           Z
 ---------------------------------------------------------------------
      1          6           0        2.567291    2.686245   -2.178506
      2          1           0        2.830832    3.042935   -3.208271
      3          1           0        3.457704    2.087240   -2.158236
      4          1           0        1.674203    3.287050   -2.198837
 ---------------------------------------------------------------------
                    Distance matrix (angstroms):
                    1          2          3          4
     1  C    0.000000
     2  H    1.121204   0.000000
     3  H    1.073337   1.552061   0.000000
     4  H    1.076562   1.554458   2.149899   0.000000
 Stoichiometry    CH3(2)
 Framework group  CS[SG(CH3)]
 Deg. of freedom     5
 Full point group                 CS      NOp   2
 Largest Abelian subgroup         CS      NOp   2
 Largest concise Abelian subgroup C1      NOp   1
                         Standard orientation:                         
 ---------------------------------------------------------------------
 Center     Atomic      Atomic             Coordinates (Angstroms)
 Number     Number       Type             X           Y           Z
 ---------------------------------------------------------------------
      1          6           0        0.000000   -0.124579   -0.000000
      2          1           0       -0.003225    0.996620    0.000000
      3          1           0       -1.073333   -0.127551   -0.000000
      4          1           0        1.076558   -0.121597    0.000000
 ---------------------------------------------------------------------
 Rotational constants (GHZ):         427.5827808         216.9826272         143.9388989
 Standard basis: CC-pVTZ (5D, 7F)
 There are    57 symmetry adapted cartesian basis functions of A'  symmetry.
 There are    23 symmetry adapted cartesian basis functions of A"  symmetry.
 There are    50 symmetry adapted basis functions of A'  symmetry.
 There are    22 symmetry adapted basis functions of A"  symmetry.
    72 basis functions,   103 primitive gaussians,    80 cartesian basis functions
     5 alpha electrons        4 beta electrons
       nuclear repulsion energy         9.6667361974 Hartrees.
 NAtoms=    4 NActive=    4 NUniq=    4 SFac= 1.00D+00 NAtFMM=   60 NAOKFM=F Big=F
 Integral buffers will be    131072 words long.
 Raffenetti 2 integral format.
 Two-electron integral symmetry is turned on.
 One-electron integrals computed using PRISM.
 NBasis=    72 RedAO= T EigKep=  1.36D-03  NBF=    50    22
 NBsUse=    72 1.00D-06 EigRej= -1.00D+00 NBFU=    50    22
 Initial guess from the checkpoint file:  "/scratch/dinius.ab/QMscratch/Gau-26661.chk"
 B after Tr=     0.000000    0.000000   -0.000000
         Rot=    1.000000   -0.000000    0.000000    0.000019 Ang=   0.00 deg.
 Initial guess orbital symmetries:
 Alpha Orbitals:
       Occupied  (A') (A') (A') (A') (A")
       Virtual   (A') (A') (A') (A') (A") (A') (A') (A') (A') (A')
                 (A") (A') (A") (A') (A") (A') (A') (A") (A') (A')
                 (A') (A") (A') (A') (A") (A') (A') (A') (A") (A')
                 (A') (A") (A') (A") (A') (A") (A') (A') (A') (A")
                 (A') (A") (A") (A') (A') (A') (A') (A') (A") (A")
                 (A") (A") (A') (A') (A') (A") (A') (A") (A') (A')
                 (A') (A') (A") (A') (A') (A') (A')
 Beta  Orbitals:
       Occupied  (A') (A') (A') (A')
       Virtual   (A") (A') (A') (A') (A') (A') (A") (A') (A') (A')
                 (A') (A") (A') (A") (A') (A") (A') (A") (A') (A')
                 (A') (A") (A') (A') (A') (A') (A") (A') (A') (A")
                 (A') (A') (A') (A") (A") (A') (A") (A') (A') (A")
                 (A') (A') (A") (A") (A') (A') (A') (A') (A') (A")
                 (A") (A") (A") (A') (A') (A') (A') (A") (A") (A')
                 (A') (A') (A') (A") (A') (A') (A') (A')
 Initial guess <Sx>= 0.0000 <Sy>= 0.0000 <Sz>= 0.5000 <S**2>= 0.7567 S= 0.5033
 Keep R1 and R2 ints in memory in symmetry-blocked form, NReq=21658328.
 Requested convergence on RMS density matrix=1.00D-08 within 900 cycles.
 Requested convergence on MAX density matrix=1.00D-06.
 Requested convergence on             energy=1.00D-06.
 No special actions if energy rises.
 SCF Done:  E(UM062X) =  -39.7663856075     A.U. after    4 cycles
            NFock=  4  Conv=0.75D-08     -V/T= 2.0063
 <Sx>= 0.0000 <Sy>= 0.0000 <Sz>= 0.5000 <S**2>= 0.7567 S= 0.5033
 <L.S>= 0.000000000000E+00
 Annihilation of the first spin contaminant:
 S**2 before annihilation     0.7567,   after     0.7500
 Calling FoFJK, ICntrl=      2127 FMM=F ISym2X=1 I1Cent= 0 IOpClX= 1 NMat=1 NMatS=1 NMatT=0.
