 Entering Gaussian System, Link 0=g16
 Input=rxn907.com
 Output=rxn907.log
 Initial command:
 /shared/centos7/gaussian/g16/l1.exe "/scratch/dinius.ab/QMscratch/Gau-14674.inp" -scrdir="/scratch/dinius.ab/QMscratch/"
 Default is to use a total of  20 processors:
                               20 via shared-memory
                                1 via Linda
 Entering Link 1 = /shared/centos7/gaussian/g16/l1.exe PID=     14675.
  
 Copyright (c) 1988,1990,1992,1993,1995,1998,2003,2009,2016,
            Gaussian, Inc.  All Rights Reserved.
  
 This is part of the Gaussian(R) 16 program.  It is based on
 the Gaussian(R) 09 system (copyright 2009, Gaussian, Inc.),
 the Gaussian(R) 03 system (copyright 2003, Gaussian, Inc.),
 the Gaussian(R) 98 system (copyright 1998, Gaussian, Inc.),
 the Gaussian(R) 94 system (copyright 1995, Gaussian, Inc.),
 the Gaussian 92(TM) system (copyright 1992, Gaussian, Inc.),
 the Gaussian 90(TM) system (copyright 1990, Gaussian, Inc.),
 the Gaussian 88(TM) system (copyright 1988, Gaussian, Inc.),
 the Gaussian 86(TM) system (copyright 1986, Carnegie Mellon
 University), and the Gaussian 82(TM) system (copyright 1983,
 Carnegie Mellon University). Gaussian is a federally registered
 trademark of Gaussian, Inc.
  
 This software contains proprietary and confidential information,
 including trade secrets, belonging to Gaussian, Inc.
  
 This software is provided under written license and may be
 used, copied, transmitted, or stored only in accord with that
 written license.
  
 The following legend is applicable only to US Government
 contracts under FAR:
  
                    RESTRICTED RIGHTS LEGEND
  
 Use, reproduction and disclosure by the US Government is
 subject to restrictions as set forth in subparagraphs (a)
 and (c) of the Commercial Computer Software - Restricted
 Rights clause in FAR 52.227-19.
  
 Gaussian, Inc.
 340 Quinnipiac St., Bldg. 40, Wallingford CT 06492
  
  
 ---------------------------------------------------------------
 Warning -- This program may not be used in any manner that
 competes with the business of Gaussian, Inc. or will provide
 assistance to any competitor of Gaussian, Inc.  The licensee
 of this program is prohibited from giving any competitor of
 Gaussian, Inc. access to this program.  By using this program,
 the user acknowledges that Gaussian, Inc. is engaged in the
 business of creating and licensing software in the field of
 computational chemistry and represents and warrants to the
 licensee that it is not a competitor of Gaussian, Inc. and that
 it will not use this program in any manner prohibited above.
 ---------------------------------------------------------------
  

 Cite this work as:
 Gaussian 16, Revision A.03,
 M. J. Frisch, G. W. Trucks, H. B. Schlegel, G. E. Scuseria, 
 M. A. Robb, J. R. Cheeseman, G. Scalmani, V. Barone, 
 G. A. Petersson, H. Nakatsuji, X. Li, M. Caricato, A. V. Marenich, 
 J. Bloino, B. G. Janesko, R. Gomperts, B. Mennucci, H. P. Hratchian, 
 J. V. Ortiz, A. F. Izmaylov, J. L. Sonnenberg, D. Williams-Young, 
 F. Ding, F. Lipparini, F. Egidi, J. Goings, B. Peng, A. Petrone, 
 T. Henderson, D. Ranasinghe, V. G. Zakrzewski, J. Gao, N. Rega, 
 G. Zheng, W. Liang, M. Hada, M. Ehara, K. Toyota, R. Fukuda, 
 J. Hasegawa, M. Ishida, T. Nakajima, Y. Honda, O. Kitao, H. Nakai, 
 T. Vreven, K. Throssell, J. A. Montgomery, Jr., J. E. Peralta, 
 F. Ogliaro, M. J. Bearpark, J. J. Heyd, E. N. Brothers, K. N. Kudin, 
 V. N. Staroverov, T. A. Keith, R. Kobayashi, J. Normand, 
 K. Raghavachari, A. P. Rendell, J. C. Burant, S. S. Iyengar, 
 J. Tomasi, M. Cossi, J. M. Millam, M. Klene, C. Adamo, R. Cammi, 
 J. W. Ochterski, R. L. Martin, K. Morokuma, O. Farkas, 
 J. B. Foresman, and D. J. Fox, Gaussian, Inc., Wallingford CT, 2016.
 
 ******************************************
 Gaussian 16:  EM64L-G16RevA.03 25-Dec-2016
                 5-Feb-2019 
 ******************************************
 ----------------------------------------------------------------------
 #m062x/6-311+g(2df,2p) Opt=(ModRedun,Loose,maxcycle=1000) Int(Grid=SG1
 ) freq
 ----------------------------------------------------------------------
 1/6=1000,7=-1,18=120,19=15,26=2,38=1/1,3;
 2/9=110,12=2,17=6,18=5,40=1/2;
 3/5=4,6=6,7=214,11=2,25=1,30=1,71=1,74=-55,75=1/1,2,3;
 4//1;
 5/5=2,38=5/2;
 6/7=2,8=2,9=2,10=2,28=1/1;
 7//1,2,3,16;
 1/6=1000,7=-1,18=20,19=15,26=2/3(2);
 2/9=110/2;
 99//99;
 2/9=110/2;
 3/5=4,6=6,7=214,11=2,25=1,30=1,71=1,74=-55,75=1/1,2,3;
 4/5=5,16=3,69=1/1;
 5/5=2,38=5/2;
 7//1,2,3,16;
 1/6=1000,7=-1,18=20,19=15,26=2/3(-5);
 2/9=110/2;
 6/7=2,8=2,9=2,10=2,19=2,28=1/1;
 99/9=1/99;
 -----
 Title
 -----
 Symbolic Z-matrix:
 Charge =  0 Multiplicity = 1
 C                    -9.03665   2.62049   3.68442 
 C                    -9.37684   1.56491   2.84207 
 C                    -7.70378   3.00427   3.81514 
 H                    -9.81179   3.15168   4.23136 
 C                    -8.38323   0.88826   2.13764 
 H                    -10.41745   1.26917   2.73373 
 C                    -7.0442    1.25644   2.27901 
 H                    -8.65625   0.06315   1.48405 
 C                    -6.70493   2.32541   3.11499 
 H                    -7.44705   3.84353   4.45735 
 C                    -5.26349   2.79778   3.19692 
 C                    -5.99373   0.51218   1.53179 
 C                    -4.71386   0.74985   1.79855 
 H                    -6.27452  -0.23858   0.79681 
 C                    -4.22089   1.70913   2.86773 
 H                    -3.94789   0.1916    1.26496 
 H                    -5.04772   3.25889   4.16428 
 H                    -4.02743   1.13202   3.77547 
 C                    -2.89806   2.37663   2.44003 
 H                    -2.13587   1.61933   2.23967 
 H                    -2.52296   3.03868   3.22679 
 H                    -3.04233   2.9664    1.53111 
 O                    -2.02092   3.66153   3.98545 
 O                    -1.31102   4.45321   5.00061 
 H                    -0.74528   4.98984   4.41553 
 
 The following ModRedundant input section has been read:
 B      21      23 F                                                           
 

 GradGradGradGradGradGradGradGradGradGradGradGradGradGradGradGradGradGrad
 Berny optimization.
 Initialization pass.
                           ----------------------------
                           !    Initial Parameters    !
                           ! (Angstroms and Degrees)  !
 --------------------------                            --------------------------
 ! Name  Definition              Value          Derivative Info.                !
 --------------------------------------------------------------------------------
 ! R1    R(1,2)                  1.3927         estimate D2E/DX2                !
 ! R2    R(1,3)                  1.3932         estimate D2E/DX2                !
 ! R3    R(1,4)                  1.0873         estimate D2E/DX2                !
 ! R4    R(2,5)                  1.3933         estimate D2E/DX2                !
 ! R5    R(2,6)                  1.0872         estimate D2E/DX2                !
 ! R6    R(3,9)                  1.396          estimate D2E/DX2                !
 ! R7    R(3,10)                 1.0875         estimate D2E/DX2                !
 ! R8    R(5,7)                  1.3959         estimate D2E/DX2                !
 ! R9    R(5,8)                  1.0874         estimate D2E/DX2                !
 ! R10   R(7,9)                  1.3988         estimate D2E/DX2                !
 ! R11   R(7,12)                 1.4885         estimate D2E/DX2                !
 ! R12   R(9,11)                 1.5191         estimate D2E/DX2                !
 ! R13   R(11,15)                1.5429         estimate D2E/DX2                !
 ! R14   R(11,17)                1.0931         estimate D2E/DX2                !
 ! R15   R(12,13)                1.3288         estimate D2E/DX2                !
 ! R16   R(12,14)                1.0875         estimate D2E/DX2                !
 ! R17   R(13,15)                1.5187         estimate D2E/DX2                !
 ! R18   R(13,16)                1.0877         estimate D2E/DX2                !
 ! R19   R(15,18)                1.0929         estimate D2E/DX2                !
 ! R20   R(15,19)                1.5422         estimate D2E/DX2                !
 ! R21   R(19,20)                1.093          estimate D2E/DX2                !
 ! R22   R(19,21)                1.0945         estimate D2E/DX2                !
 ! R23   R(19,22)                1.0931         estimate D2E/DX2                !
 ! R24   R(21,23)                1.1025         Frozen                          !
 ! R25   R(23,24)                1.4701         estimate D2E/DX2                !
 ! R26   R(24,25)                0.9749         estimate D2E/DX2                !
 ! A1    A(2,1,3)              119.9502         estimate D2E/DX2                !
 ! A2    A(2,1,4)              120.0276         estimate D2E/DX2                !
 ! A3    A(3,1,4)              120.0189         estimate D2E/DX2                !
 ! A4    A(1,2,5)              119.9796         estimate D2E/DX2                !
 ! A5    A(1,2,6)              120.016          estimate D2E/DX2                !
 ! A6    A(5,2,6)              120.0044         estimate D2E/DX2                !
 ! A7    A(1,3,9)              120.2337         estimate D2E/DX2                !
 ! A8    A(1,3,10)             119.5938         estimate D2E/DX2                !
 ! A9    A(9,3,10)             120.1688         estimate D2E/DX2                !
 ! A10   A(2,5,7)              120.3165         estimate D2E/DX2                !
 ! A11   A(2,5,8)              119.5586         estimate D2E/DX2                !
 ! A12   A(7,5,8)              120.1216         estimate D2E/DX2                !
 ! A13   A(5,7,9)              119.6533         estimate D2E/DX2                !
 ! A14   A(5,7,12)             119.6195         estimate D2E/DX2                !
 ! A15   A(9,7,12)             120.7262         estimate D2E/DX2                !
 ! A16   A(3,9,7)              119.8564         estimate D2E/DX2                !
 ! A17   A(3,9,11)             120.0451         estimate D2E/DX2                !
 ! A18   A(7,9,11)             120.0009         estimate D2E/DX2                !
 ! A19   A(9,11,15)            114.223          estimate D2E/DX2                !
 ! A20   A(9,11,17)            111.481          estimate D2E/DX2                !
 ! A21   A(15,11,17)           110.6744         estimate D2E/DX2                !
 ! A22   A(7,12,13)            119.3087         estimate D2E/DX2                !
 ! A23   A(7,12,14)            120.1468         estimate D2E/DX2                !
 ! A24   A(13,12,14)           120.52           estimate D2E/DX2                !
 ! A25   A(12,13,15)           124.5387         estimate D2E/DX2                !
 ! A26   A(12,13,16)           119.2094         estimate D2E/DX2                !
 ! A27   A(15,13,16)           116.166          estimate D2E/DX2                !
 ! A28   A(11,15,13)           112.12           estimate D2E/DX2                !
 ! A29   A(11,15,18)           108.3601         estimate D2E/DX2                !
 ! A30   A(11,15,19)           109.4751         estimate D2E/DX2                !
 ! A31   A(13,15,18)           107.978          estimate D2E/DX2                !
 ! A32   A(13,15,19)           110.8904         estimate D2E/DX2                !
 ! A33   A(18,15,19)           107.8821         estimate D2E/DX2                !
 ! A34   A(15,19,20)           110.4327         estimate D2E/DX2                !
 ! A35   A(15,19,21)           110.8799         estimate D2E/DX2                !
 ! A36   A(15,19,22)           110.5444         estimate D2E/DX2                !
 ! A37   A(20,19,21)           108.173          estimate D2E/DX2                !
 ! A38   A(20,19,22)           108.2678         estimate D2E/DX2                !
 ! A39   A(21,19,22)           108.4566         estimate D2E/DX2                !
 ! A40   A(23,24,25)            99.3366         estimate D2E/DX2                !
 ! A41   L(19,21,23,3,-1)      186.9708         estimate D2E/DX2                !
 ! A42   L(21,23,24,10,-1)     181.7467         estimate D2E/DX2                !
 ! A43   L(19,21,23,3,-2)      178.7221         estimate D2E/DX2                !
 ! A44   L(21,23,24,10,-2)     178.5647         estimate D2E/DX2                !
 ! D1    D(3,1,2,5)              0.4121         estimate D2E/DX2                !
 ! D2    D(3,1,2,6)           -179.5579         estimate D2E/DX2                !
 ! D3    D(4,1,2,5)            179.75           estimate D2E/DX2                !
 ! D4    D(4,1,2,6)             -0.2199         estimate D2E/DX2                !
 ! D5    D(2,1,3,9)             -0.6615         estimate D2E/DX2                !
 ! D6    D(2,1,3,10)           178.6422         estimate D2E/DX2                !
 ! D7    D(4,1,3,9)           -179.9995         estimate D2E/DX2                !
 ! D8    D(4,1,3,10)            -0.6958         estimate D2E/DX2                !
 ! D9    D(1,2,5,7)              0.4779         estimate D2E/DX2                !
 ! D10   D(1,2,5,8)            179.8211         estimate D2E/DX2                !
 ! D11   D(6,2,5,7)           -179.5521         estimate D2E/DX2                !
 ! D12   D(6,2,5,8)             -0.2089         estimate D2E/DX2                !
 ! D13   D(1,3,9,7)              0.0223         estimate D2E/DX2                !
 ! D14   D(1,3,9,11)           176.4308         estimate D2E/DX2                !
 ! D15   D(10,3,9,7)          -179.2774         estimate D2E/DX2                !
 ! D16   D(10,3,9,11)           -2.8689         estimate D2E/DX2                !
 ! D17   D(2,5,7,9)             -1.1134         estimate D2E/DX2                !
 ! D18   D(2,5,7,12)           179.2575         estimate D2E/DX2                !
 ! D19   D(8,5,7,9)            179.5472         estimate D2E/DX2                !
 ! D20   D(8,5,7,12)            -0.082          estimate D2E/DX2                !
 ! D21   D(5,7,9,3)              0.8612         estimate D2E/DX2                !
 ! D22   D(5,7,9,11)          -175.5489         estimate D2E/DX2                !
 ! D23   D(12,7,9,3)          -179.5139         estimate D2E/DX2                !
 ! D24   D(12,7,9,11)            4.076          estimate D2E/DX2                !
 ! D25   D(5,7,12,13)         -171.3892         estimate D2E/DX2                !
 ! D26   D(5,7,12,14)            6.8218         estimate D2E/DX2                !
 ! D27   D(9,7,12,13)            8.9857         estimate D2E/DX2                !
 ! D28   D(9,7,12,14)         -172.8033         estimate D2E/DX2                !
 ! D29   D(3,9,11,15)          157.2899         estimate D2E/DX2                !
 ! D30   D(3,9,11,17)           30.9133         estimate D2E/DX2                !
 ! D31   D(7,9,11,15)          -26.3068         estimate D2E/DX2                !
 ! D32   D(7,9,11,17)         -152.6835         estimate D2E/DX2                !
 ! D33   D(9,11,15,13)          34.4224         estimate D2E/DX2                !
 ! D34   D(9,11,15,18)         -84.6518         estimate D2E/DX2                !
 ! D35   D(9,11,15,19)         157.9272         estimate D2E/DX2                !
 ! D36   D(17,11,15,13)        161.2178         estimate D2E/DX2                !
 ! D37   D(17,11,15,18)         42.1437         estimate D2E/DX2                !
 ! D38   D(17,11,15,19)        -75.2773         estimate D2E/DX2                !
 ! D39   D(7,12,13,15)           2.36           estimate D2E/DX2                !
 ! D40   D(7,12,13,16)         178.8531         estimate D2E/DX2                !
 ! D41   D(14,12,13,15)       -175.8441         estimate D2E/DX2                !
 ! D42   D(14,12,13,16)          0.649          estimate D2E/DX2                !
 ! D43   D(12,13,15,11)        -24.3352         estimate D2E/DX2                !
 ! D44   D(12,13,15,18)         94.9635         estimate D2E/DX2                !
 ! D45   D(12,13,15,19)       -147.0422         estimate D2E/DX2                !
 ! D46   D(16,13,15,11)        159.0752         estimate D2E/DX2                !
 ! D47   D(16,13,15,18)        -81.6261         estimate D2E/DX2                !
 ! D48   D(16,13,15,19)         36.3682         estimate D2E/DX2                !
 ! D49   D(11,15,19,20)        177.8431         estimate D2E/DX2                !
 ! D50   D(11,15,19,21)         57.9533         estimate D2E/DX2                !
 ! D51   D(11,15,19,22)        -62.3655         estimate D2E/DX2                !
 ! D52   D(13,15,19,20)        -57.9301         estimate D2E/DX2                !
 ! D53   D(13,15,19,21)       -177.8199         estimate D2E/DX2                !
 ! D54   D(13,15,19,22)         61.8613         estimate D2E/DX2                !
 ! D55   D(18,15,19,20)         60.1226         estimate D2E/DX2                !
 ! D56   D(18,15,19,21)        -59.7673         estimate D2E/DX2                !
 ! D57   D(18,15,19,22)        179.9139         estimate D2E/DX2                !
 ! D58   D(15,19,24,25)       -159.8337         estimate D2E/DX2                !
 ! D59   D(20,19,24,25)         80.1677         estimate D2E/DX2                !
 ! D60   D(22,19,24,25)        -34.6653         estimate D2E/DX2                !
 --------------------------------------------------------------------------------
 Trust Radius=3.00D-01 FncErr=1.00D-05 GrdErr=1.00D-04 EigMax=2.50D+02 EigMin=1.00D-04
 Number of steps in this run=    150 maximum allowed number of steps=    150.
 GradGradGradGradGradGradGradGradGradGradGradGradGradGradGradGradGradGrad

                          Input orientation:                          
 ---------------------------------------------------------------------
 Center     Atomic      Atomic             Coordinates (Angstroms)
 Number     Number       Type             X           Y           Z
 ---------------------------------------------------------------------
      1          6           0       -9.036650    2.620490    3.684420
      2          6           0       -9.376840    1.564910    2.842070
      3          6           0       -7.703780    3.004270    3.815140
      4          1           0       -9.811790    3.151680    4.231360
      5          6           0       -8.383230    0.888260    2.137640
      6          1           0      -10.417450    1.269170    2.733730
      7          6           0       -7.044200    1.256440    2.279010
      8          1           0       -8.656250    0.063150    1.484050
      9          6           0       -6.704930    2.325410    3.114990
     10          1           0       -7.447050    3.843530    4.457350
     11          6           0       -5.263490    2.797780    3.196920
     12          6           0       -5.993730    0.512180    1.531790
     13          6           0       -4.713860    0.749850    1.798550
     14          1           0       -6.274520   -0.238580    0.796810
     15          6           0       -4.220890    1.709130    2.867730
     16          1           0       -3.947890    0.191600    1.264960
     17          1           0       -5.047720    3.258890    4.164280
     18          1           0       -4.027430    1.132020    3.775470
     19          6           0       -2.898060    2.376630    2.440030
     20          1           0       -2.135870    1.619330    2.239670
     21          1           0       -2.522960    3.038680    3.226790
     22          1           0       -3.042330    2.966400    1.531110
     23          8           0       -2.020920    3.661530    3.985450
     24          8           0       -1.311020    4.453210    5.000610
     25          1           0       -0.745280    4.989840    4.415530
 ---------------------------------------------------------------------
                    Distance matrix (angstroms):
                    1          2          3          4          5
     1  C    0.000000
     2  C    1.392671   0.000000
     3  C    1.393168   2.412002   0.000000
     4  H    1.087266   2.153404   2.153758   0.000000
     5  C    2.412490   1.393319   2.784449   3.398164   0.000000
     6  H    2.153250   1.087230   3.397650   2.480638   2.153710
     7  C    2.793862   2.419380   2.418605   3.881129   1.395902
     8  H    3.395043   2.149128   3.871869   4.292086   1.087440
     9  C    2.418314   2.791406   1.395981   3.403173   2.416051
    10  H    2.149436   3.394897   1.087521   2.474212   3.871835
    11  C    3.808651   4.308774   2.525836   4.677857   3.808033
    12  C    4.282307   3.777633   3.787938   5.369564   2.493632
    13  C    5.073688   4.847333   4.253077   6.138098   3.687603
    14  H    4.913444   4.130382   4.655016   5.983500   2.741213
    15  C    4.968813   5.158030   3.834775   5.932841   4.304873
    16  H    6.135859   5.817796   5.340528   7.207422   4.573745
    17  H    4.068093   4.833124   2.690982   4.765748   4.566485
    18  H    5.226482   5.447460   4.125826   6.143752   4.659925
    19  C    6.268194   6.541798   5.037837   7.183956   5.691553
    20  H    7.121123   7.266188   5.949940   8.076798   6.290817
    21  H    6.543124   7.021088   5.214234   7.358599   6.336665
    22  H    6.378736   6.618822   5.191083   7.290492   5.762964
    23  O    7.098933   7.733867   5.723277   7.811407   7.182229
    24  O    8.048390   8.835102   6.661242   8.634166   8.421497
    25  H    8.654199   9.418585   7.261107   9.252803   8.963817
                    6          7          8          9         10
     6  H    0.000000
     7  C    3.403784   0.000000
     8  H    2.473461   2.157454   0.000000
     9  C    3.878635   1.398808   3.403738   0.000000
    10  H    4.292024   3.405949   4.959229   2.158092   0.000000
    11  C    5.395785   2.527690   4.682194   1.519077   2.729507
    12  C    4.646180   1.488539   2.700541   2.510006   4.665719
    13  C    5.803033   2.432686   4.014088   2.860029   4.910234
    14  H    4.815479   2.241519   2.497194   3.483282   5.606960
    15  C    6.213604   2.919349   4.929122   2.571263   4.182184
    16  H    6.721135   3.427728   4.715205   3.946774   5.980975
    17  H    5.902496   3.398526   5.515240   2.172266   2.486861
    18  H    6.475831   3.369833   5.274378   3.004899   4.417131
    19  C    7.606179   4.297817   6.278761   3.866582   5.187937
    20  H    8.303690   4.921884   6.745963   4.705427   6.170397
    21  H    8.105384   4.951391   7.036204   4.243834   5.138942
    22  H    7.662851   4.415686   6.320378   4.041557   5.360391
    23  O    8.819972   5.824924   7.951915   4.948016   5.449651
    24  O    9.909789   7.106040   9.251553   6.097324   6.190130
    25  H   10.498700   7.627541   9.769816   6.656427   6.799228
                   11         12         13         14         15
    11  C    0.000000
    12  C    2.920595   0.000000
    13  C    2.539990   1.328802   0.000000
    14  H    4.000274   1.087511   2.101461   0.000000
    15  C    1.542900   2.521981   1.518678   3.507090   0.000000
    16  H    3.500778   2.087925   1.087691   2.411934   2.224027
    17  H    1.093144   3.920377   3.464596   5.007713   2.183219
    18  H    2.153444   3.047070   2.127311   3.974968   1.092920
    19  C    2.519029   3.726157   2.520920   4.576022   1.542194
    20  H    3.476648   4.075532   2.756196   4.760472   2.179411
    21  H    2.751260   4.615460   3.475436   5.542512   2.186228
    22  H    2.781530   3.838484   2.789020   4.610656   2.180891
    23  O    3.447043   5.632235   4.529055   6.593284   3.146590
    24  O    4.649276   7.035069   5.962163   8.020047   4.532824
    25  H    5.167626   7.477407   6.369908   8.426387   5.023804
                   16         17         18         19         20
    16  H    0.000000
    17  H    4.361645   0.000000
    18  H    2.682047   2.390762   0.000000
    19  C    2.693936   2.893520   2.146609   0.000000
    20  H    2.504374   3.856313   2.484784   1.092969   0.000000
    21  H    3.739661   2.702183   2.489946   1.094533   1.771666
    22  H    2.930937   3.322758   3.061458   1.093059   1.771532
    23  O    4.811932   3.058695   3.235521   2.192867   2.689153
    24  O    6.250559   4.011082   4.462080   3.658886   4.041540
    25  H    6.573120   4.644384   5.105385   3.919940   4.245992
                   21         22         23         24         25
    21  H    0.000000
    22  H    1.774909   0.000000
    23  O    1.102520   2.747775   0.000000
    24  O    2.572184   4.152766   1.470124   0.000000
    25  H    2.894870   4.206023   1.891199   0.974860   0.000000
 Stoichiometry    C11H12O2
 Framework group  C1[X(C11H12O2)]
 Deg. of freedom    69
 Full point group                 C1      NOp   1
 Largest Abelian subgroup         C1      NOp   1
 Largest concise Abelian subgroup C1      NOp   1
                         Standard orientation:                         
 ---------------------------------------------------------------------
 Center     Atomic      Atomic             Coordinates (Angstroms)
 Number     Number       Type             X           Y           Z
 ---------------------------------------------------------------------
      1          6           0       -3.091437   -1.846265    0.007647
      2          6           0       -3.857588   -0.684688   -0.049647
      3          6           0       -1.702743   -1.760693    0.079226
      4          1           0       -3.577179   -2.818995    0.007388
      5          6           0       -3.234307    0.561436   -0.044000
      6          1           0       -4.941758   -0.750101   -0.098275
      7          6           0       -1.842404    0.652851    0.008863
      8          1           0       -3.839046    1.463944   -0.091912
      9          6           0       -1.074411   -0.514113    0.079879
     10          1           0       -1.111303   -2.670874    0.146094
     11          6           0        0.433462   -0.422505    0.239641
     12          6           0       -1.192097    1.991775   -0.002609
     13          6           0        0.128503    2.072465   -0.125974
     14          1           0       -1.797046    2.893328    0.059986
     15          6           0        1.050440    0.879952   -0.311252
     16          1           0        0.600202    3.052177   -0.153075
     17          1           0        0.934762   -1.296505   -0.184372
     18          1           0        1.225188    0.751890   -1.382484
     19          6           0        2.414129    1.128900    0.364574
     20          1           0        2.883076    2.028407   -0.042312
     21          1           0        3.091717    0.285582    0.198167
     22          1           0        2.289170    1.265047    1.441898
     23          8           0        3.873034   -0.471168    0.018100
     24          8           0        4.942590   -1.442611   -0.253219
     25          1           0        5.527932   -1.248355    0.501759
 ---------------------------------------------------------------------
 Rotational constants (GHZ):           1.6142936           0.3703486           0.3046057
 Standard basis: 6-311+G(2df,2p) (5D, 7F)
 There are   615 symmetry adapted cartesian basis functions of A   symmetry.
 There are   550 symmetry adapted basis functions of A   symmetry.
   550 basis functions,   808 primitive gaussians,   615 cartesian basis functions
    47 alpha electrons       47 beta electrons
       nuclear repulsion energy       716.6690300944 Hartrees.
 NAtoms=   25 NActive=   25 NUniq=   25 SFac= 1.00D+00 NAtFMM=   60 NAOKFM=F Big=F
 Integral buffers will be    131072 words long.
 Raffenetti 2 integral format.
 Two-electron integral symmetry is turned on.
 One-electron integrals computed using PRISM.
 NBasis=   550 RedAO= T EigKep=  1.32D-06  NBF=   550
 NBsUse=   549 1.00D-06 EigRej=  5.93D-07 NBFU=   549
 ExpMin= 4.38D-02 ExpMax= 8.59D+03 ExpMxC= 1.30D+03 IAcc=2 IRadAn=         4 AccDes= 0.00D+00
 Harris functional with IExCor= 1009 and IRadAn=       4 diagonalized for initial guess.
 HarFok:  IExCor= 1009 AccDes= 0.00D+00 IRadAn=         4 IDoV= 1 UseB2=F ITyADJ=14
 ICtDFT=  3500011 ScaDFX=  1.000000  1.000000  1.000000  1.000000
 FoFCou: FMM=F IPFlag=           0 FMFlag=      100000 FMFlg1=           0
         NFxFlg=           0 DoJE=T BraDBF=F KetDBF=T FulRan=T
         wScrn=  0.000000 ICntrl=       500 IOpCl=  0 I1Cent=   200000004 NGrid=           0
         NMat0=    1 NMatS0=      1 NMatT0=    0 NMatD0=    1 NMtDS0=    0 NMtDT0=    0
 Petite list used in FoFCou.
 Requested convergence on RMS density matrix=1.00D-08 within 128 cycles.
 Requested convergence on MAX density matrix=1.00D-06.
 Requested convergence on             energy=1.00D-06.
 No special actions if energy rises.
 Restarting incremental Fock formation.
 SCF Done:  E(RM062X) =  -576.424087924     A.U. after   29 cycles
            NFock= 29  Conv=0.68D-08     -V/T= 2.0038

 **********************************************************************

            Population analysis using the SCF density.

 **********************************************************************

 Orbital symmetries:
       Occupied  (A) (A) (A) (A) (A) (A) (A) (A) (A) (A) (A) (A)
                 (A) (A) (A) (A) (A) (A) (A) (A) (A) (A) (A) (A)
                 (A) (A) (A) (A) (A) (A) (A) (A) (A) (A) (A) (A)
                 (A) (A) (A) (A) (A) (A) (A) (A) (A) (A) (A)
       Virtual   (A) (A) (A) (A) (A) (A) (A) (A) (A) (A) (A) (A)
                 (A) (A) (A) (A) (A) (A) (A) (A) (A) (A) (A) (A)
                 (A) (A) (A) (A) (A) (A) (A) (A) (A) (A) (A) (A)
                 (A) (A) (A) (A) (A) (A) (A) (A) (A) (A) (A) (A)
                 (A) (A) (A) (A) (A) (A) (A) (A) (A) (A) (A) (A)
                 (A) (A) (A) (A) (A) (A) (A) (A) (A) (A) (A) (A)
                 (A) (A) (A) (A) (A) (A) (A) (A) (A) (A) (A) (A)
                 (A) (A) (A) (A) (A) (A) (A) (A) (A) (A) (A) (A)
                 (A) (A) (A) (A) (A) (A) (A) (A) (A) (A) (A) (A)
                 (A) (A) (A) (A) (A) (A) (A) (A) (A) (A) (A) (A)
                 (A) (A) (A) (A) (A) (A) (A) (A) (A) (A) (A) (A)
                 (A) (A) (A) (A) (A) (A) (A) (A) (A) (A) (A) (A)
                 (A) (A) (A) (A) (A) (A) (A) (A) (A) (A) (A) (A)
                 (A) (A) (A) (A) (A) (A) (A) (A) (A) (A) (A) (A)
                 (A) (A) (A) (A) (A) (A) (A) (A) (A) (A) (A) (A)
                 (A) (A) (A) (A) (A) (A) (A) (A) (A) (A) (A) (A)
                 (A) (A) (A) (A) (A) (A) (A) (A) (A) (A) (A) (A)
                 (A) (A) (A) (A) (A) (A) (A) (A) (A) (A) (A) (A)
                 (A) (A) (A) (A) (A) (A) (A) (A) (A) (A) (A) (A)
                 (A) (A) (A) (A) (A) (A) (A) (A) (A) (A) (A) (A)
                 (A) (A) (A) (A) (A) (A) (A) (A) (A) (A) (A) (A)
                 (A) (A) (A) (A) (A) (A) (A) (A) (A) (A) (A) (A)
                 (A) (A) (A) (A) (A) (A) (A) (A) (A) (A) (A) (A)
                 (A) (A) (A) (A) (A) (A) (A) (A) (A) (A) (A) (A)
                 (A) (A) (A) (A) (A) (A) (A) (A) (A) (A) (A) (A)
                 (A) (A) (A) (A) (A) (A) (A) (A) (A) (A) (A) (A)
                 (A) (A) (A) (A) (A) (A) (A) (A) (A) (A) (A) (A)
                 (A) (A) (A) (A) (A) (A) (A) (A) (A) (A) (A) (A)
                 (A) (A) (A) (A) (A) (A) (A) (A) (A) (A) (A) (A)
                 (A) (A) (A) (A) (A) (A) (A) (A) (A) (A) (A) (A)
                 (A) (A) (A) (A) (A) (A) (A) (A) (A) (A) (A) (A)
                 (A) (A) (A) (A) (A) (A) (A) (A) (A) (A) (A) (A)
                 (A) (A) (A) (A) (A) (A) (A) (A) (A) (A) (A) (A)
                 (A) (A) (A) (A) (A) (A) (A) (A) (A) (A) (A) (A)
                 (A) (A) (A) (A) (A) (A) (A) (A) (A) (A) (A) (A)
                 (A) (A) (A) (A) (A) (A) (A) (A) (A) (A) (A) (A)
                 (A) (A) (A) (A) (A) (A) (A) (A) (A) (A) (A) (A)
                 (A) (A) (A) (A) (A) (A) (A) (A) (A) (A) (A) (A)
                 (A) (A) (A) (A) (A) (A) (A) (A) (A) (A) (A) (A)
                 (A) (A) (A) (A) (A) (A) (A) (A) (A) (A) (A) (A)
                 (A) (A) (A) (A) (A) (A) (A) (A) (A) (A) (A) (A)
                 (A) (A) (A) (A) (A) (A) (A) (A) (A) (A)
 The electronic state is 1-A.
 Alpha  occ. eigenvalues --  -19.59533 -19.54436 -10.64438 -10.61204 -10.61073
 Alpha  occ. eigenvalues --  -10.60029 -10.59819 -10.58995 -10.58965 -10.58677
 Alpha  occ. eigenvalues --  -10.58220 -10.58061 -10.48690  -1.11669  -1.02768
 Alpha  occ. eigenvalues --   -0.96296  -0.91876  -0.91095  -0.88648  -0.85818
 Alpha  occ. eigenvalues --   -0.78054  -0.74031  -0.72613  -0.70186  -0.63374
 Alpha  occ. eigenvalues --   -0.62088  -0.59757  -0.56220  -0.55798  -0.54527
 Alpha  occ. eigenvalues --   -0.52924  -0.52459  -0.51396  -0.49813  -0.47216
 Alpha  occ. eigenvalues --   -0.46067  -0.45869  -0.43161  -0.42478  -0.40680
 Alpha  occ. eigenvalues --   -0.39757  -0.38408  -0.37104  -0.32666  -0.28647
 Alpha  occ. eigenvalues --   -0.26879  -0.22119
 Alpha virt. eigenvalues --   -0.15103  -0.04235  -0.01804  -0.00975   0.00255
 Alpha virt. eigenvalues --    0.01030   0.02389   0.02698   0.03641   0.04090
 Alpha virt. eigenvalues --    0.04276   0.05289   0.05476   0.05675   0.06264
 Alpha virt. eigenvalues --    0.07630   0.08756   0.09225   0.09515   0.09748
 Alpha virt. eigenvalues --    0.10075   0.11480   0.11548   0.11933   0.12140
 Alpha virt. eigenvalues --    0.13084   0.13373   0.14701   0.14886   0.15351
 Alpha virt. eigenvalues --    0.15615   0.16597   0.16835   0.17077   0.17501
 Alpha virt. eigenvalues --    0.17531   0.18093   0.18561   0.18790   0.19264
 Alpha virt. eigenvalues --    0.19515   0.20128   0.20311   0.20735   0.21322
 Alpha virt. eigenvalues --    0.21824   0.22280   0.22352   0.22746   0.24007
 Alpha virt. eigenvalues --    0.24051   0.24251   0.24741   0.24996   0.25595
 Alpha virt. eigenvalues --    0.26238   0.26461   0.26982   0.27902   0.28271
 Alpha virt. eigenvalues --    0.28333   0.28483   0.29213   0.30054   0.30963
 Alpha virt. eigenvalues --    0.31669   0.32699   0.33353   0.34015   0.35297
 Alpha virt. eigenvalues --    0.36303   0.37061   0.39279   0.40208   0.40550
 Alpha virt. eigenvalues --    0.41668   0.43861   0.44415   0.46145   0.46766
 Alpha virt. eigenvalues --    0.47880   0.48323   0.49930   0.50084   0.50998
 Alpha virt. eigenvalues --    0.51590   0.52697   0.52859   0.53444   0.53517
 Alpha virt. eigenvalues --    0.54751   0.55049   0.55887   0.56718   0.57069
 Alpha virt. eigenvalues --    0.57299   0.58017   0.59035   0.59289   0.59622
 Alpha virt. eigenvalues --    0.61056   0.61681   0.62027   0.62978   0.63542
 Alpha virt. eigenvalues --    0.64053   0.64858   0.65178   0.65342   0.66050
 Alpha virt. eigenvalues --    0.66752   0.67120   0.67564   0.68471   0.68920
 Alpha virt. eigenvalues --    0.69550   0.69916   0.70738   0.71111   0.71419
 Alpha virt. eigenvalues --    0.72224   0.72951   0.73616   0.74061   0.75922
 Alpha virt. eigenvalues --    0.76628   0.77628   0.78580   0.79102   0.79600
 Alpha virt. eigenvalues --    0.81081   0.81195   0.82267   0.82677   0.85271
 Alpha virt. eigenvalues --    0.86203   0.86946   0.88563   0.89034   0.89881
 Alpha virt. eigenvalues --    0.90867   0.92685   0.93609   0.95148   0.96325
 Alpha virt. eigenvalues --    0.97417   0.98803   0.99126   1.00675   1.01775
 Alpha virt. eigenvalues --    1.02297   1.03804   1.04960   1.05762   1.06170
 Alpha virt. eigenvalues --    1.06662   1.07930   1.09120   1.10092   1.10641
 Alpha virt. eigenvalues --    1.11343   1.12785   1.13581   1.14695   1.16130
 Alpha virt. eigenvalues --    1.16823   1.17763   1.17814   1.19115   1.20223
 Alpha virt. eigenvalues --    1.20630   1.22314   1.23616   1.24821   1.25626
 Alpha virt. eigenvalues --    1.27809   1.28777   1.29264   1.29461   1.29748
 Alpha virt. eigenvalues --    1.30115   1.31478   1.32099   1.33021   1.33104
 Alpha virt. eigenvalues --    1.33941   1.34450   1.34902   1.35800   1.36574
 Alpha virt. eigenvalues --    1.37571   1.38696   1.40125   1.40743   1.42368
 Alpha virt. eigenvalues --    1.43127   1.43596   1.44236   1.45366   1.45844
 Alpha virt. eigenvalues --    1.47168   1.48162   1.49087   1.50108   1.51989
 Alpha virt. eigenvalues --    1.54171   1.54417   1.55553   1.58098   1.60629
 Alpha virt. eigenvalues --    1.61612   1.63604   1.64152   1.64671   1.65554
 Alpha virt. eigenvalues --    1.67275   1.67834   1.68388   1.70341   1.71027
 Alpha virt. eigenvalues --    1.71999   1.72709   1.74488   1.74600   1.76159
 Alpha virt. eigenvalues --    1.77351   1.79367   1.80798   1.81908   1.84263
 Alpha virt. eigenvalues --    1.86679   1.89244   1.90911   1.92939   1.95425
 Alpha virt. eigenvalues --    1.98478   2.00555   2.03697   2.12175   2.23369
 Alpha virt. eigenvalues --    2.24878   2.31725   2.38795   2.41795   2.46458
 Alpha virt. eigenvalues --    2.47593   2.50275   2.52423   2.54201   2.55140
 Alpha virt. eigenvalues --    2.56105   2.58496   2.61432   2.64464   2.64936
 Alpha virt. eigenvalues --    2.66608   2.67463   2.68125   2.69187   2.70659
 Alpha virt. eigenvalues --    2.71341   2.71644   2.72744   2.72832   2.74211
 Alpha virt. eigenvalues --    2.75219   2.75770   2.76440   2.77261   2.78922
 Alpha virt. eigenvalues --    2.79596   2.80378   2.80891   2.81439   2.82136
 Alpha virt. eigenvalues --    2.82775   2.83433   2.84545   2.84685   2.85086
 Alpha virt. eigenvalues --    2.86372   2.87517   2.87734   2.88540   2.89873
 Alpha virt. eigenvalues --    2.90710   2.92779   2.93533   2.95009   2.97130
 Alpha virt. eigenvalues --    2.99116   3.00118   3.01540   3.02416   3.04661
 Alpha virt. eigenvalues --    3.05525   3.06647   3.08759   3.09583   3.10723
 Alpha virt. eigenvalues --    3.10937   3.13679   3.13890   3.14350   3.15546
 Alpha virt. eigenvalues --    3.15836   3.16436   3.16739   3.18392   3.20201
 Alpha virt. eigenvalues --    3.21079   3.21626   3.22726   3.24622   3.25636
 Alpha virt. eigenvalues --    3.26403   3.27246   3.28389   3.29752   3.31576
 Alpha virt. eigenvalues --    3.33281   3.33405   3.34239   3.34682   3.35496
 Alpha virt. eigenvalues --    3.36790   3.37456   3.38617   3.39794   3.40919
 Alpha virt. eigenvalues --    3.41755   3.42897   3.44092   3.44458   3.45230
 Alpha virt. eigenvalues --    3.46559   3.48059   3.49486   3.50011   3.51738
 Alpha virt. eigenvalues --    3.53549   3.54632   3.55861   3.57423   3.60263
 Alpha virt. eigenvalues --    3.61877   3.62853   3.63694   3.64234   3.64879
 Alpha virt. eigenvalues --    3.67303   3.68344   3.69665   3.70233   3.70460
 Alpha virt. eigenvalues --    3.71411   3.71716   3.72619   3.73382   3.74206
 Alpha virt. eigenvalues --    3.75298   3.77744   3.78641   3.80786   3.81093
 Alpha virt. eigenvalues --    3.81990   3.84583   3.85205   3.85426   3.87848
 Alpha virt. eigenvalues --    3.89504   3.90955   3.92321   3.93740   3.94946
 Alpha virt. eigenvalues --    3.96039   3.98282   3.99616   4.01677   4.03507
 Alpha virt. eigenvalues --    4.04471   4.05402   4.07928   4.08553   4.10474
 Alpha virt. eigenvalues --    4.11057   4.12587   4.13503   4.15098   4.16943
 Alpha virt. eigenvalues --    4.18610   4.19636   4.20063   4.22137   4.23640
 Alpha virt. eigenvalues --    4.26413   4.27327   4.27765   4.28399   4.29139
 Alpha virt. eigenvalues --    4.30650   4.31072   4.32413   4.32723   4.34726
 Alpha virt. eigenvalues --    4.37104   4.37165   4.38172   4.38786   4.41033
 Alpha virt. eigenvalues --    4.41503   4.42054   4.43309   4.45317   4.46541
 Alpha virt. eigenvalues --    4.47954   4.51491   4.52218   4.54131   4.55571
 Alpha virt. eigenvalues --    4.56260   4.57539   4.60730   4.64799   4.65951
 Alpha virt. eigenvalues --    4.68102   4.69169   4.71696   4.76027   4.77255
 Alpha virt. eigenvalues --    4.79491   4.81352   4.86933   4.90109   4.90693
 Alpha virt. eigenvalues --    4.95608   4.96363   4.98756   5.00463   5.02211
 Alpha virt. eigenvalues --    5.03899   5.04475   5.08287   5.12097   5.14636
 Alpha virt. eigenvalues --    5.16994   5.17354   5.18018   5.19555   5.23741
 Alpha virt. eigenvalues --    5.28193   5.29327   5.29713   5.32505   5.35343
 Alpha virt. eigenvalues --    5.37208   5.38273   5.42476   5.44833   5.46700
 Alpha virt. eigenvalues --    5.54868   5.58190   5.58338   5.61409   5.65249
 Alpha virt. eigenvalues --    5.65678   5.66555   5.70267   5.75274   5.81941
 Alpha virt. eigenvalues --    5.91466   6.02275   6.08037   6.10841   6.15391
 Alpha virt. eigenvalues --    6.21177   6.44583   6.83907   6.88498   6.97778
 Alpha virt. eigenvalues --    6.99709   7.06165   7.12434   7.32822   7.43607
 Alpha virt. eigenvalues --    7.48688   7.58026   8.05358   8.32178  23.87090
 Alpha virt. eigenvalues --   24.14673  24.31506  24.38732  24.46827  24.53185
 Alpha virt. eigenvalues --   24.58679  24.69735  24.72919  24.92128  25.12839
 Alpha virt. eigenvalues --   50.12153  50.19074
          Condensed to atoms (all electrons):
               1          2          3          4          5          6
     1  C    6.833242  -0.197709  -0.021528   0.339225   0.108269   0.023618
     2  C   -0.197709   6.756157  -0.440756   0.020878  -0.264183   0.350505
     3  C   -0.021528  -0.440756   6.909924  -0.014179   0.636282   0.014968
     4  H    0.339225   0.020878  -0.014179   0.470500   0.010819  -0.006137
     5  C    0.108269  -0.264183   0.636282   0.010819   7.987366  -0.024690
     6  H    0.023618   0.350505   0.014968  -0.006137  -0.024690   0.466373
     7  C    0.031189  -0.013128  -1.418402  -0.031890  -2.324361   0.030302
     8  H   -0.000227   0.015187  -0.011895  -0.000088   0.406632  -0.005927
     9  C   -0.007087   0.615361  -1.046719   0.040485  -1.409672  -0.027865
    10  H    0.020670   0.001560   0.395379  -0.005742  -0.011676  -0.000080
    11  C   -1.530906   0.650726   1.464949   0.013421  -1.183798   0.000603
    12  C    0.576020  -0.877126  -0.403073  -0.000044   2.639653   0.010904
    13  C    0.112561  -0.268044   0.447546  -0.000598  -0.908445  -0.000679
    14  H    0.000655   0.014419  -0.001221  -0.000001   0.041757  -0.000005
    15  C   -0.051960  -0.066037  -0.485792   0.000218   0.377440   0.000380
    16  H   -0.001256   0.002018   0.000287   0.000000   0.018801  -0.000000
    17  H    0.043949  -0.002940   0.084640  -0.000016   0.001346  -0.000002
    18  H   -0.000244  -0.002859   0.024165  -0.000000  -0.019974  -0.000000
    19  C   -0.021943   0.003346   0.089489   0.000028  -0.040019  -0.000002
    20  H    0.000199   0.000203  -0.001315   0.000000   0.002750  -0.000000
    21  H   -0.001596   0.000109  -0.005585   0.000000   0.002299  -0.000000
    22  H    0.000259  -0.000420   0.007556   0.000000  -0.005651  -0.000000
    23  O    0.001261  -0.000055   0.005070  -0.000000   0.000389   0.000000
    24  O    0.000080   0.000032  -0.001214   0.000000   0.000011   0.000000
    25  H    0.000020  -0.000001   0.000190   0.000000  -0.000001   0.000000
               7          8          9         10         11         12
     1  C    0.031189  -0.000227  -0.007087   0.020670  -1.530906   0.576020
     2  C   -0.013128   0.015187   0.615361   0.001560   0.650726  -0.877126
     3  C   -1.418402  -0.011895  -1.046719   0.395379   1.464949  -0.403073
     4  H   -0.031890  -0.000088   0.040485  -0.005742   0.013421  -0.000044
     5  C   -2.324361   0.406632  -1.409672  -0.011676  -1.183798   2.639653
     6  H    0.030302  -0.005927  -0.027865  -0.000080   0.000603   0.010904
     7  C   15.853468  -0.035321  -3.146761  -0.035719  -0.564248  -2.605483
     8  H   -0.035321   0.470004  -0.062624   0.000032   0.006483   0.036692
     9  C   -3.146761  -0.062624  18.675733  -0.033465  -5.995640  -2.082098
    10  H   -0.035719   0.000032  -0.033465   0.455462   0.024956   0.006600
    11  C   -0.564248   0.006483  -5.995640   0.024956  16.873024  -2.388203
    12  C   -2.605483   0.036692  -2.082098   0.006600  -2.388203  12.470361
    13  C   -0.054597   0.010572   1.074614  -0.002794   0.459118  -2.909888
    14  H   -0.009753   0.002065  -0.073088   0.000008  -0.015085   0.379850
    15  C    0.037298   0.003114  -0.595458   0.004355  -1.709415   1.203764
    16  H    0.023194  -0.000028  -0.036553  -0.000002   0.016547   0.019456
    17  H   -0.082416   0.000008   0.027096   0.001831   0.300830  -0.006684
    18  H   -0.052042  -0.000006  -0.069037  -0.000071   0.130919  -0.094705
    19  C   -0.088735  -0.000004  -0.362263   0.000916   0.646958  -0.187594
    20  H    0.005765  -0.000000   0.013469   0.000001   0.008389   0.087842
    21  H    0.019087   0.000000  -0.064874   0.000034   0.107058   0.017259
    22  H   -0.011946  -0.000000  -0.010362  -0.000010   0.006004  -0.076952
    23  O   -0.011353  -0.000000   0.122963  -0.000035  -0.147004  -0.007182
    24  O    0.001316   0.000000   0.013645  -0.000007  -0.034041  -0.000823
    25  H   -0.000063  -0.000000   0.001050  -0.000000   0.000338  -0.000084
              13         14         15         16         17         18
     1  C    0.112561   0.000655  -0.051960  -0.001256   0.043949  -0.000244
     2  C   -0.268044   0.014419  -0.066037   0.002018  -0.002940  -0.002859
     3  C    0.447546  -0.001221  -0.485792   0.000287   0.084640   0.024165
     4  H   -0.000598  -0.000001   0.000218   0.000000  -0.000016  -0.000000
     5  C   -0.908445   0.041757   0.377440   0.018801   0.001346  -0.019974
     6  H   -0.000679  -0.000005   0.000380  -0.000000  -0.000002  -0.000000
     7  C   -0.054597  -0.009753   0.037298   0.023194  -0.082416  -0.052042
     8  H    0.010572   0.002065   0.003114  -0.000028   0.000008  -0.000006
     9  C    1.074614  -0.073088  -0.595458  -0.036553   0.027096  -0.069037
    10  H   -0.002794   0.000008   0.004355  -0.000002   0.001831  -0.000071
    11  C    0.459118  -0.015085  -1.709415   0.016547   0.300830   0.130919
    12  C   -2.909888   0.379850   1.203764   0.019456  -0.006684  -0.094705
    13  C    9.684016   0.032732  -1.601385   0.319642   0.033890  -0.009843
    14  H    0.032732   0.467924   0.002624  -0.007192   0.000018  -0.000382
    15  C   -1.601385   0.002624   8.174447   0.005011  -0.048919   0.427027
    16  H    0.319642  -0.007192   0.005011   0.459757  -0.000098  -0.001484
    17  H    0.033890   0.000018  -0.048919  -0.000098   0.430504  -0.005720
    18  H   -0.009843  -0.000382   0.427027  -0.001484  -0.005720   0.458667
    19  C    0.101165  -0.000251  -0.077121  -0.000961  -0.007766  -0.007017
    20  H   -0.029254  -0.000004  -0.090986   0.003115   0.000077  -0.008686
    21  H   -0.057948   0.000011  -0.134678   0.000388   0.003786   0.006411
    22  H    0.039870  -0.000079   0.000197  -0.001686   0.000267   0.005398
    23  O    0.056440  -0.000002   0.053134  -0.000194  -0.000384  -0.005266
    24  O    0.000910   0.000000   0.052471   0.000014   0.000060  -0.002921
    25  H   -0.000164  -0.000000  -0.001508   0.000000   0.000081  -0.000009
              19         20         21         22         23         24
     1  C   -0.021943   0.000199  -0.001596   0.000259   0.001261   0.000080
     2  C    0.003346   0.000203   0.000109  -0.000420  -0.000055   0.000032
     3  C    0.089489  -0.001315  -0.005585   0.007556   0.005070  -0.001214
     4  H    0.000028   0.000000   0.000000   0.000000  -0.000000   0.000000
     5  C   -0.040019   0.002750   0.002299  -0.005651   0.000389   0.000011
     6  H   -0.000002  -0.000000  -0.000000  -0.000000   0.000000   0.000000
     7  C   -0.088735   0.005765   0.019087  -0.011946  -0.011353   0.001316
     8  H   -0.000004  -0.000000   0.000000  -0.000000  -0.000000   0.000000
     9  C   -0.362263   0.013469  -0.064874  -0.010362   0.122963   0.013645
    10  H    0.000916   0.000001   0.000034  -0.000010  -0.000035  -0.000007
    11  C    0.646958   0.008389   0.107058   0.006004  -0.147004  -0.034041
    12  C   -0.187594   0.087842   0.017259  -0.076952  -0.007182  -0.000823
    13  C    0.101165  -0.029254  -0.057948   0.039870   0.056440   0.000910
    14  H   -0.000251  -0.000004   0.000011  -0.000079  -0.000002   0.000000
    15  C   -0.077121  -0.090986  -0.134678   0.000197   0.053134   0.052471
    16  H   -0.000961   0.003115   0.000388  -0.001686  -0.000194   0.000014
    17  H   -0.007766   0.000077   0.003786   0.000267  -0.000384   0.000060
    18  H   -0.007017  -0.008686   0.006411   0.005398  -0.005266  -0.002921
    19  C    5.923130   0.368046  -0.110239   0.440366   0.124534   0.071096
    20  H    0.368046   0.535043   0.029265  -0.036632  -0.021822  -0.002877
    21  H   -0.110239   0.029265   1.043241  -0.012375  -0.498366  -0.321916
    22  H    0.440366  -0.036632  -0.012375   0.514949  -0.003983  -0.002273
    23  O    0.124534  -0.021822  -0.498366  -0.003983   9.175888  -0.105050
    24  O    0.071096  -0.002877  -0.321916  -0.002273  -0.105050   8.655844
    25  H   -0.003988  -0.000025   0.003373   0.000280  -0.026139   0.219426
              25
     1  C    0.000020
     2  C   -0.000001
     3  C    0.000190
     4  H    0.000000
     5  C   -0.000001
     6  H    0.000000
     7  C   -0.000063
     8  H   -0.000000
     9  C    0.001050
    10  H   -0.000000
    11  C    0.000338
    12  C   -0.000084
    13  C   -0.000164
    14  H   -0.000000
    15  C   -0.001508
    16  H    0.000000
    17  H    0.000081
    18  H   -0.000009
    19  C   -0.003988
    20  H   -0.000025
    21  H    0.003373
    22  H    0.000280
    23  O   -0.026139
    24  O    0.219426
    25  H    0.565320
 Mulliken charges:
               1
     1  C   -0.256760
     2  C   -0.297247
     3  C   -0.228766
     4  H    0.163122
     5  C   -0.041348
     6  H    0.167733
     7  C    0.484600
     8  H    0.165333
     9  C    0.439150
    10  H    0.177799
    11  C   -1.141982
    12  C    0.191539
    13  C   -0.529438
    14  H    0.165001
    15  C    0.521779
    16  H    0.181224
    17  H    0.226563
    18  H    0.227677
    19  C   -0.861169
    20  H    0.137437
    21  H    0.975255
    22  H    0.147221
    23  O   -0.712845
    24  O   -0.543783
    25  H    0.241905
 Sum of Mulliken charges =  -0.00000
 Mulliken charges with hydrogens summed into heavy atoms:
               1
     1  C   -0.093639
     2  C   -0.129513
     3  C   -0.050966
     5  C    0.123985
     7  C    0.484600
     9  C    0.439150
    11  C   -0.915419
    12  C    0.356540
    13  C   -0.348214
    15  C    0.749455
    19  C    0.398744
    23  O   -0.712845
    24  O   -0.301879
 Electronic spatial extent (au):  <R**2>=           3447.9554
 Charge=             -0.0000 electrons
 Dipole moment (field-independent basis, Debye):
    X=            -10.8721    Y=              1.5702    Z=              0.6375  Tot=             11.0034
 Quadrupole moment (field-independent basis, Debye-Ang):
   XX=            -93.1119   YY=            -69.5602   ZZ=            -80.7798
   XY=             10.1777   XZ=              6.7915   YZ=             -2.6576
 Traceless Quadrupole moment (field-independent basis, Debye-Ang):
   XX=            -11.9613   YY=             11.5904   ZZ=              0.3709
   XY=             10.1777   XZ=              6.7915   YZ=             -2.6576
 Octapole moment (field-independent basis, Debye-Ang**2):
  XXX=           -144.1040  YYY=             -1.2099  ZZZ=             -2.2081  XYY=            -21.1819
  XXY=             23.0540  XXZ=             39.3033  XZZ=             19.5264  YZZ=             -2.1456
  YYZ=              0.6775  XYZ=            -11.3865
 Hexadecapole moment (field-independent basis, Debye-Ang**3):
 XXXX=          -3426.4068 YYYY=           -837.6961 ZZZZ=           -118.9430 XXXY=            118.9082
 XXXZ=            246.5784 YYYX=             19.3498 YYYZ=             -8.3265 ZZZX=             -0.4998
 ZZZY=             -1.3175 XXYY=           -731.0238 XXZZ=           -631.6921 YYZZ=           -189.3611
 XXYZ=            -57.7874 YYXZ=              7.6713 ZZXY=            -13.3448
 N-N= 7.166690300944D+02 E-N=-2.776705378875D+03  KE= 5.742259279825D+02
 Calling FoFJK, ICntrl=      2127 FMM=F ISym2X=0 I1Cent= 0 IOpClX= 0 NMat=1 NMatS=1 NMatT=0.
 ***** Axes restored to original set *****
 -------------------------------------------------------------------
 Center     Atomic                   Forces (Hartrees/Bohr)
 Number     Number              X              Y              Z
 -------------------------------------------------------------------
      1        6           0.012545593    0.011842080    0.010186902
      2        6           0.005568010   -0.009211374   -0.008566898
      3        6          -0.026296771    0.007828328    0.006172396
      4        1           0.004006580   -0.002356709   -0.001746167
      5        6          -0.010420140    0.000457887    0.005349876
      6        1           0.003680084    0.001091911   -0.000273186
      7        6           0.010253831   -0.032437443   -0.033194286
      8        1           0.003019572    0.003351466    0.002184327
      9        6           0.066675596    0.042586579   -0.007921447
     10        1           0.000434877   -0.003206906   -0.002917011
     11        6          -0.045338162   -0.106376981    0.045949517
     12        6          -0.024208421    0.016016608    0.011996058
     13        6           0.018389354    0.002014900    0.015226507
     14        1          -0.002939338    0.004561609    0.003071509
     15        6          -0.025797418    0.031627470   -0.044563954
     16        1          -0.000563907    0.002107314    0.003107479
     17        1           0.005644455    0.025598308   -0.014522637
     18        1           0.000190132    0.004457691    0.009462524
     19        6          -0.010262629   -0.036063636   -0.050048838
     20        1          -0.004067421   -0.001702971   -0.000679024
     21        1          -0.028300110   -0.038447390   -0.042011259
     22        1          -0.001896507   -0.001721477   -0.001449555
     23        8           0.048170074    0.082701629    0.100016295
     24        8           0.009160460    0.000621197   -0.015277995
     25        1          -0.007647792   -0.005340090    0.010448865
 -------------------------------------------------------------------
 Cartesian Forces:  Max     0.106376981 RMS     0.028189894

 GradGradGradGradGradGradGradGradGradGradGradGradGradGradGradGradGradGrad
 Berny optimization.
 FormGI is forming the generalized inverse of G from B-inverse, IUseBI=4.
 Internal  Forces:  Max     0.132114049 RMS     0.016005384
 Search for a local minimum.
 Step number   1 out of a maximum of  150
 All quantities printed in internal units (Hartrees-Bohrs-Radians)
 Mixed Optimization -- RFO/linear search
 Second derivative matrix not updated -- first step.
 ITU=  0
     Eigenvalues ---    0.00230   0.00230   0.00230   0.00230   0.00362
     Eigenvalues ---    0.00365   0.00555   0.01149   0.01365   0.01614
     Eigenvalues ---    0.01777   0.01819   0.02118   0.02157   0.02159
     Eigenvalues ---    0.02161   0.02179   0.02181   0.02183   0.02335
     Eigenvalues ---    0.04140   0.04786   0.05164   0.05279   0.06475
     Eigenvalues ---    0.10319   0.11829   0.14135   0.15928   0.15993
     Eigenvalues ---    0.15999   0.15999   0.15999   0.16000   0.16000
     Eigenvalues ---    0.16000   0.16261   0.19113   0.21999   0.22083
     Eigenvalues ---    0.22687   0.23974   0.24629   0.27543   0.28325
     Eigenvalues ---    0.29561   0.30041   0.32901   0.34293   0.34452
     Eigenvalues ---    0.34462   0.34472   0.34477   0.35081   0.35101
     Eigenvalues ---    0.35102   0.35110   0.35130   0.35135   0.35725
     Eigenvalues ---    0.40763   0.42217   0.45514   0.46462   0.46540
     Eigenvalues ---    0.46795   0.52396   0.576851000.000001000.00000
     Eigenvalues --- 1000.000001000.000001000.000001000.000001000.00000
     Eigenvalues --- 1000.000001000.000001000.000001000.000001000.00000
     Eigenvalues --- 1000.000001000.000001000.000001000.000001000.00000
     Eigenvalues --- 1000.000001000.000001000.000001000.000001000.00000
     Eigenvalues --- 1000.000001000.000001000.000001000.000001000.00000
     Eigenvalues --- 1000.000001000.000001000.000001000.000001000.00000
     Eigenvalues --- 1000.000001000.000001000.000001000.000001000.00000
     Eigenvalues --- 1000.000001000.000001000.000001000.000001000.00000
     Eigenvalues --- 1000.000001000.000001000.000001000.000001000.00000
     Eigenvalues --- 1000.000001000.000001000.000001000.000001000.00000
     Eigenvalues --- 1000.000001000.000001000.000001000.000001000.00000
     Eigenvalues --- 1000.000001000.000001000.000001000.000001000.00000
 RFO step:  Lambda=-6.27649200D-02 EMin= 2.30000000D-03
 Linear search not attempted -- first point.
 Maximum step size (   0.300) exceeded in Quadratic search.
    -- Step size scaled by   0.657
 Iteration  1 RMS(Cart)=  0.11715517 RMS(Int)=  0.00460249
 Iteration  2 RMS(Cart)=  0.00989771 RMS(Int)=  0.00125735
 Iteration  3 RMS(Cart)=  0.00003797 RMS(Int)=  0.00125723
 Iteration  4 RMS(Cart)=  0.00000012 RMS(Int)=  0.00125723
 Iteration  1 RMS(Cart)=  0.00000170 RMS(Int)=  0.00000000
 Iteration  2 RMS(Cart)=  0.00000000 RMS(Int)=  0.00000000
 Variable       Old X    -DE/DX   Delta X   Delta X   Delta X     New X
                                 (Linear)    (Quad)   (Total)
    R1        2.63177   0.00954   0.00000   0.01092   0.01092   2.64269
    R2        2.63271  -0.01726   0.00000  -0.02183  -0.02179   2.61091
    R3        2.05464  -0.00487   0.00000  -0.00773  -0.00773   2.04690
    R4        2.63299  -0.00743   0.00000  -0.00964  -0.00967   2.62332
    R5        2.05457  -0.00380   0.00000  -0.00602  -0.00602   2.04854
    R6        2.63802   0.01192   0.00000   0.01533   0.01536   2.65338
    R7        2.05512  -0.00407   0.00000  -0.00647  -0.00647   2.04865
    R8        2.63787  -0.00245   0.00000  -0.00261  -0.00265   2.63522
    R9        2.05496  -0.00463   0.00000  -0.00735  -0.00735   2.04761
   R10        2.64336   0.01578   0.00000   0.02082   0.02070   2.66407
   R11        2.81293  -0.02861   0.00000  -0.04433  -0.04499   2.76794
   R12        2.87064  -0.06239   0.00000  -0.11456  -0.11403   2.75661
   R13        2.91566  -0.03578   0.00000  -0.07112  -0.07038   2.84527
   R14        2.06574  -0.00095   0.00000  -0.00153  -0.00153   2.06422
   R15        2.51107   0.01123   0.00000   0.01285   0.01227   2.52334
   R16        2.05510  -0.00447   0.00000  -0.00709  -0.00709   2.04800
   R17        2.86989  -0.01759   0.00000  -0.03115  -0.03114   2.83874
   R18        2.05544  -0.00301   0.00000  -0.00478  -0.00478   2.05066
   R19        2.06532   0.00555   0.00000   0.00894   0.00894   2.07426
   R20        2.91432   0.00417   0.00000   0.00790   0.00791   2.92224
   R21        2.06541  -0.00151   0.00000  -0.00244  -0.00244   2.06297
   R22        2.06837   0.06934   0.00000   0.11229   0.11229   2.18065
   R23        2.06558   0.00052   0.00000   0.00084   0.00084   2.06642
   R24        2.08346   0.13211   0.00000   0.00000  -0.00000   2.08346
   R25        2.77813  -0.00518   0.00000  -0.00811  -0.00810   2.77004
   R26        1.84222  -0.01361   0.00000  -0.01524  -0.01524   1.82698
    A1        2.09353   0.00049   0.00000  -0.00133  -0.00129   2.09224
    A2        2.09488   0.00048   0.00000   0.00280   0.00278   2.09765
    A3        2.09472  -0.00096   0.00000  -0.00145  -0.00147   2.09326
    A4        2.09404   0.00584   0.00000   0.01113   0.01109   2.10513
    A5        2.09467  -0.00256   0.00000  -0.00450  -0.00448   2.09019
    A6        2.09447  -0.00328   0.00000  -0.00663  -0.00662   2.08786
    A7        2.09847  -0.00165   0.00000  -0.00376  -0.00370   2.09477
    A8        2.08731   0.00238   0.00000   0.00648   0.00643   2.09373
    A9        2.09734  -0.00071   0.00000  -0.00260  -0.00266   2.09468
   A10        2.09992  -0.00082   0.00000  -0.00182  -0.00190   2.09802
   A11        2.08669   0.00240   0.00000   0.00680   0.00683   2.09352
   A12        2.09652  -0.00158   0.00000  -0.00492  -0.00488   2.09163
   A13        2.08834  -0.00390   0.00000  -0.00823  -0.00799   2.08036
   A14        2.08775   0.00993   0.00000   0.01732   0.01763   2.10539
   A15        2.10707  -0.00602   0.00000  -0.00910  -0.00966   2.09741
   A16        2.09189   0.00006   0.00000   0.00413   0.00383   2.09572
   A17        2.09518   0.00126   0.00000   0.00263   0.00224   2.09742
   A18        2.09441  -0.00118   0.00000  -0.00600  -0.00541   2.08900
   A19        1.99357   0.02174   0.00000   0.06709   0.06366   2.05723
   A20        1.94571  -0.00007   0.00000   0.04905   0.04066   1.98637
   A21        1.93163   0.00348   0.00000   0.05528   0.04734   1.97897
   A22        2.08233   0.00044   0.00000   0.00942   0.00801   2.09034
   A23        2.09696  -0.00456   0.00000  -0.01734  -0.01679   2.08017
   A24        2.10347   0.00426   0.00000   0.00863   0.00919   2.11266
   A25        2.17361  -0.00586   0.00000  -0.00942  -0.01019   2.16342
   A26        2.08060   0.00550   0.00000   0.01244   0.01269   2.09329
   A27        2.02748   0.00053   0.00000  -0.00194  -0.00163   2.02585
   A28        1.95686  -0.00067   0.00000   0.00335   0.00358   1.96044
   A29        1.89124  -0.00727   0.00000  -0.03710  -0.03667   1.85457
   A30        1.91070   0.00477   0.00000   0.01450   0.01328   1.92398
   A31        1.88457   0.00285   0.00000   0.00884   0.00856   1.89313
   A32        1.93540   0.00276   0.00000   0.02172   0.02157   1.95697
   A33        1.88290  -0.00287   0.00000  -0.01372  -0.01366   1.86924
   A34        1.92741   0.00026   0.00000  -0.00115  -0.00048   1.92693
   A35        1.93522  -0.01491   0.00000  -0.04551  -0.04483   1.89039
   A36        1.92936   0.00175   0.00000   0.00344   0.00492   1.93428
   A37        1.88798   0.00723   0.00000   0.02177   0.02076   1.90874
   A38        1.88963  -0.00090   0.00000   0.00107  -0.00045   1.88917
   A39        1.89292   0.00711   0.00000   0.02220   0.02138   1.91430
   A40        1.73375   0.00540   0.00000   0.01592   0.01592   1.74967
   A41        3.26326  -0.01381   0.00000  -0.14520  -0.14402   3.11924
   A42        3.17208   0.01028   0.00000   0.09845   0.09912   3.27120
   A43        3.11929  -0.00415   0.00000  -0.04327  -0.04313   3.07616
   A44        3.11654  -0.00570   0.00000  -0.05719  -0.05709   3.05946
    D1        0.00719  -0.00032   0.00000  -0.00099  -0.00093   0.00626
    D2       -3.13388   0.00021   0.00000   0.00200   0.00199  -3.13188
    D3        3.13723   0.00015   0.00000   0.00116   0.00118   3.13841
    D4       -0.00384   0.00067   0.00000   0.00414   0.00411   0.00027
    D5       -0.01155  -0.00050   0.00000  -0.00471  -0.00473  -0.01627
    D6        3.11790   0.00132   0.00000   0.00693   0.00685   3.12474
    D7       -3.14158  -0.00098   0.00000  -0.00689  -0.00686   3.13474
    D8       -0.01214   0.00084   0.00000   0.00475   0.00471  -0.00743
    D9        0.00834  -0.00008   0.00000  -0.00080  -0.00084   0.00750
   D10        3.13847   0.00106   0.00000   0.00553   0.00540  -3.13931
   D11       -3.13378  -0.00061   0.00000  -0.00378  -0.00377  -3.13754
   D12       -0.00365   0.00053   0.00000   0.00254   0.00248  -0.00116
   D13        0.00039   0.00188   0.00000   0.01239   0.01235   0.01274
   D14        3.07930   0.00441   0.00000   0.02616   0.02582   3.10512
   D15       -3.12898   0.00002   0.00000   0.00062   0.00070  -3.12828
   D16       -0.05007   0.00256   0.00000   0.01439   0.01417  -0.03590
   D17       -0.01943   0.00152   0.00000   0.00859   0.00850  -0.01093
   D18        3.12863   0.00216   0.00000   0.01040   0.01006   3.13869
   D19        3.13369   0.00034   0.00000   0.00215   0.00218   3.13587
   D20       -0.00143   0.00099   0.00000   0.00396   0.00374   0.00231
   D21        0.01503  -0.00234   0.00000  -0.01422  -0.01412   0.00091
   D22       -3.06391  -0.00497   0.00000  -0.02830  -0.02780  -3.09171
   D23       -3.13311  -0.00294   0.00000  -0.01596  -0.01557   3.13451
   D24        0.07114  -0.00556   0.00000  -0.03003  -0.02925   0.04189
   D25       -2.99131  -0.00593   0.00000  -0.02917  -0.02827  -3.01957
   D26        0.11906  -0.00079   0.00000  -0.00332  -0.00345   0.11561
   D27        0.15683  -0.00529   0.00000  -0.02733  -0.02670   0.13013
   D28       -3.01599  -0.00014   0.00000  -0.00149  -0.00188  -3.01787
   D29        2.74523   0.00829   0.00000   0.06824   0.06983   2.81505
   D30        0.53954  -0.01424   0.00000  -0.10412  -0.10507   0.43447
   D31       -0.45914   0.01088   0.00000   0.08239   0.08358  -0.37556
   D32       -2.66483  -0.01165   0.00000  -0.08997  -0.09132  -2.75615
   D33        0.60078  -0.01084   0.00000  -0.09021  -0.09192   0.50886
   D34       -1.47745  -0.00925   0.00000  -0.07909  -0.08112  -1.55858
   D35        2.75635  -0.00432   0.00000  -0.04956  -0.05140   2.70495
   D36        2.81378   0.00955   0.00000   0.07745   0.07874   2.89252
   D37        0.73555   0.01115   0.00000   0.08858   0.08953   0.82508
   D38       -1.31384   0.01607   0.00000   0.11810   0.11925  -1.19458
   D39        0.04119   0.00195   0.00000   0.00680   0.00602   0.04721
   D40        3.12158   0.00549   0.00000   0.02856   0.02753  -3.13408
   D41       -3.06906  -0.00306   0.00000  -0.01867  -0.01879  -3.08785
   D42        0.01133   0.00049   0.00000   0.00309   0.00272   0.01404
   D43       -0.42473   0.01123   0.00000   0.06608   0.06484  -0.35989
   D44        1.65743   0.00370   0.00000   0.02800   0.02725   1.68468
   D45       -2.56637   0.00353   0.00000   0.02910   0.02844  -2.53793
   D46        2.77639   0.00762   0.00000   0.04445   0.04361   2.82000
   D47       -1.42464   0.00009   0.00000   0.00637   0.00603  -1.41862
   D48        0.63474  -0.00009   0.00000   0.00747   0.00721   0.64196
   D49        3.10395  -0.00401   0.00000  -0.02418  -0.02418   3.07977
   D50        1.01148  -0.00356   0.00000  -0.02114  -0.02116   0.99031
   D51       -1.08848  -0.00384   0.00000  -0.02138  -0.02188  -1.11037
   D52       -1.01107   0.00038   0.00000   0.00520   0.00570  -1.00537
   D53       -3.10354   0.00084   0.00000   0.00824   0.00871  -3.09483
   D54        1.07968   0.00055   0.00000   0.00800   0.00799   1.08768
   D55        1.04934   0.00368   0.00000   0.01999   0.02000   1.06934
   D56       -1.04314   0.00413   0.00000   0.02303   0.02302  -1.02011
   D57        3.14009   0.00385   0.00000   0.02279   0.02230  -3.12079
   D58       -2.78962   0.00054   0.00000   0.00425   0.00503  -2.78460
   D59        1.39919   0.00550   0.00000   0.03934   0.04143   1.44063
   D60       -0.60502  -0.00386   0.00000  -0.02147  -0.02435  -0.62937
         Item               Value     Threshold  Converged?
 Maximum Force            0.069336     0.002500     NO 
 RMS     Force            0.011084     0.001667     NO 
 Maximum Displacement     0.538186     0.010000     NO 
 RMS     Displacement     0.121251     0.006667     NO 
 Predicted change in Energy=-3.361494D-02
 GradGradGradGradGradGradGradGradGradGradGradGradGradGradGradGradGradGrad

                          Input orientation:                          
 ---------------------------------------------------------------------
 Center     Atomic      Atomic             Coordinates (Angstroms)
 Number     Number       Type             X           Y           Z
 ---------------------------------------------------------------------
      1          6           0       -8.942107    2.690141    3.696810
      2          6           0       -9.319806    1.613825    2.887767
      3          6           0       -7.609557    3.040937    3.797654
      4          1           0       -9.692048    3.254621    4.237382
      5          6           0       -8.366499    0.886667    2.188092
      6          1           0      -10.366784    1.345896    2.802918
      7          6           0       -7.015875    1.217739    2.292180
      8          1           0       -8.671386    0.056026    1.562663
      9          6           0       -6.635052    2.305375    3.104248
     10          1           0       -7.316830    3.884793    4.412052
     11          6           0       -5.232432    2.700332    3.171847
     12          6           0       -6.001917    0.454495    1.560887
     13          6           0       -4.706532    0.693673    1.779489
     14          1           0       -6.318844   -0.302283    0.852809
     15          6           0       -4.194272    1.678144    2.791915
     16          1           0       -3.953066    0.134716    1.234115
     17          1           0       -4.976154    3.265045    4.071079
     18          1           0       -3.947747    1.133653    3.712565
     19          6           0       -2.900355    2.380335    2.318628
     20          1           0       -2.124699    1.643295    2.102082
     21          1           0       -2.538453    3.080155    3.161767
     22          1           0       -3.083278    2.961593    1.410650
     23          8           0       -2.210418    3.695095    4.016046
     24          8           0       -1.595816    4.380507    5.156730
     25          1           0       -1.028213    5.011026    4.693086
 ---------------------------------------------------------------------
                    Distance matrix (angstroms):
                    1          2          3          4          5
     1  C    0.000000
     2  C    1.398449   0.000000
     3  C    1.381635   2.406136   0.000000
     4  H    1.083175   2.156903   2.139109   0.000000
     5  C    2.420759   1.388200   2.793659   3.400570   0.000000
     6  H    2.153077   1.084043   3.385995   2.481166   2.142438
     7  C    2.802020   2.412406   2.437819   3.885176   1.394499
     8  H    3.400946   2.145481   3.877159   4.292654   1.083551
     9  C    2.412815   2.780828   1.404110   3.395627   2.418674
    10  H    2.140161   3.390081   1.084097   2.463592   3.877701
    11  C    3.746648   4.238846   2.481606   4.618524   3.752270
    12  C    4.266731   3.756733   3.778534   5.349896   2.484231
    13  C    5.059852   4.832935   4.243842   6.120054   3.687758
    14  H    4.891263   4.101012   4.638446   5.956963   2.718359
    15  C    4.938107   5.126833   3.812203   5.899168   4.289349
    16  H    6.122548   5.807256   5.328019   7.189529   4.577542
    17  H    4.024845   4.795212   2.657028   4.718837   4.549369
    18  H    5.231302   5.456177   4.129627   6.145805   4.680853
    19  C    6.204686   6.490054   4.980010   7.111475   5.668052
    20  H    7.079272   7.237937   5.908641   8.026247   6.288080
    21  H    6.437791   6.943481   5.110967   7.236110   6.302820
    22  H    6.294925   6.549246   5.117742   7.193894   5.729062
    23  O    6.813771   7.493202   5.443006   7.497852   7.008995
    24  O    7.678326   8.512505   6.309249   8.225679   8.176912
    25  H    8.307153   9.140605   6.927997   8.851817   8.782698
                    6          7          8          9         10
     6  H    0.000000
     7  C    3.392030   0.000000
     8  H    2.465030   2.149998   0.000000
     9  C    3.864870   1.409763   3.403339   0.000000
    10  H    4.282234   3.420176   4.961180   2.160957   0.000000
    11  C    5.322797   2.480436   4.626903   1.458733   2.699217
    12  C    4.624856   1.464733   2.699045   2.491702   4.650278
    13  C    5.788891   2.422925   4.021651   2.841085   4.891553
    14  H    4.785942   2.206380   2.483291   3.459602   5.585320
    15  C    6.181457   2.902267   4.918016   2.539366   4.152651
    16  H    6.712963   3.416613   4.730400   3.924565   5.956280
    17  H    5.860909   3.393583   5.499518   2.146549   2.445223
    18  H    6.486643   3.382007   5.300578   2.994093   4.405539
    19  C    7.553288   4.276662   6.267272   3.817169   5.113812
    20  H    8.277172   4.913333   6.757922   4.667545   6.108887
    21  H    8.026156   4.926670   7.022489   4.169618   5.004352
    22  H    7.589357   4.391292   6.300189   3.989235   5.271022
    23  O    8.574189   5.674630   7.810635   4.726530   5.125256
    24  O    9.574925   6.898246   9.037818   5.823466   5.790534
    25  H   10.208566   7.483680   9.631702   6.425076   6.394849
                   11         12         13         14         15
    11  C    0.000000
    12  C    2.868987   0.000000
    13  C    2.498382   1.335296   0.000000
    14  H    3.946381   1.083757   2.109553   0.000000
    15  C    1.505654   2.506058   1.502198   3.492281   0.000000
    16  H    3.460342   2.099245   1.085162   2.435830   2.206148
    17  H    1.092336   3.905438   3.454857   4.988578   2.183084
    18  H    2.096968   3.051325   2.122763   3.982740   1.097653
    19  C    2.503790   3.728635   2.529382   4.585971   1.546381
    20  H    3.452497   4.091327   2.769785   4.789239   2.181792
    21  H    2.720641   4.631683   3.508070   5.573466   2.200945
    22  H    2.790866   3.850528   2.813264   4.629575   2.188479
    23  O    3.291625   5.559205   4.499034   6.547080   3.082574
    24  O    4.470764   6.910672   5.888553   7.922074   4.432504
    25  H    5.032786   7.437095   6.376411   8.424355   4.974584
                   16         17         18         19         20
    16  H    0.000000
    17  H    4.346727   0.000000
    18  H    2.672193   2.393529   0.000000
    19  C    2.706875   2.857051   2.143433   0.000000
    20  H    2.524302   3.825940   2.485336   1.091679   0.000000
    21  H    3.793755   2.608336   2.465432   1.153951   1.832673
    22  H    2.962925   3.279168   3.063900   1.093502   1.770554
    23  O    4.842753   2.799512   3.109887   2.255180   2.807221
    24  O    6.242618   3.721502   4.261368   3.709088   4.135568
    25  H    6.655647   4.361374   4.951679   4.007930   4.388302
                   21         22         23         24         25
    21  H    0.000000
    22  H    1.837743   0.000000
    23  O    1.102520   2.843940   0.000000
    24  O    2.561125   4.273052   1.465840   0.000000
    25  H    2.890333   4.381535   1.894114   0.966795   0.000000
 Stoichiometry    C11H12O2
 Framework group  C1[X(C11H12O2)]
 Deg. of freedom    69
 Full point group                 C1      NOp   1
 Largest Abelian subgroup         C1      NOp   1
 Largest concise Abelian subgroup C1      NOp   1
                         Standard orientation:                         
 ---------------------------------------------------------------------
 Center     Atomic      Atomic             Coordinates (Angstroms)
 Number     Number       Type             X           Y           Z
 ---------------------------------------------------------------------
      1          6           0       -2.943419   -1.905040    0.051084
      2          6           0       -3.758559   -0.773397   -0.051836
      3          6           0       -1.571470   -1.760402    0.126920
      4          1           0       -3.385149   -2.893619    0.080299
      5          6           0       -3.202118    0.497937   -0.086205
      6          1           0       -4.835288   -0.888622   -0.102108
      7          6           0       -1.818325    0.659985   -0.027185
      8          1           0       -3.843978    1.367447   -0.163994
      9          6           0       -0.996410   -0.480280    0.080915
     10          1           0       -0.939212   -2.635833    0.222511
     11          6           0        0.448098   -0.320476    0.206454
     12          6           0       -1.221169    1.996888   -0.066408
     13          6           0        0.104997    2.128420   -0.150066
     14          1           0       -1.868005    2.865798   -0.032812
     15          6           0        1.057052    0.972394   -0.267526
     16          1           0        0.550764    3.117548   -0.172253
     17          1           0        1.017157   -1.203364   -0.093342
     18          1           0        1.298863    0.827487   -1.328360
     19          6           0        2.389760    1.238125    0.470424
     20          1           0        2.864789    2.142142    0.084598
     21          1           0        3.086998    0.335321    0.296048
     22          1           0        2.220680    1.371192    1.542549
     23          8           0        3.729822   -0.528350    0.058558
     24          8           0        4.714640   -1.529680   -0.361153
     25          1           0        5.346070   -1.466182    0.368200
 ---------------------------------------------------------------------
 Rotational constants (GHZ):           1.5203994           0.3951876           0.3181780
 Standard basis: 6-311+G(2df,2p) (5D, 7F)
 There are   615 symmetry adapted cartesian basis functions of A   symmetry.
 There are   550 symmetry adapted basis functions of A   symmetry.
   550 basis functions,   808 primitive gaussians,   615 cartesian basis functions
    47 alpha electrons       47 beta electrons
       nuclear repulsion energy       722.3621440852 Hartrees.
 NAtoms=   25 NActive=   25 NUniq=   25 SFac= 1.00D+00 NAtFMM=   60 NAOKFM=F Big=F
 Integral buffers will be    131072 words long.
 Raffenetti 2 integral format.
 Two-electron integral symmetry is turned on.
 One-electron integrals computed using PRISM.
 NBasis=   550 RedAO= T EigKep=  1.01D-06  NBF=   550
 NBsUse=   549 1.00D-06 EigRej=  5.58D-07 NBFU=   549
 Initial guess from the checkpoint file:  "/scratch/dinius.ab/QMscratch/Gau-14675.chk"
 B after Tr=    -0.000000   -0.000000   -0.000000
         Rot=    0.999993    0.002355   -0.000464   -0.002740 Ang=   0.42 deg.
 ExpMin= 4.38D-02 ExpMax= 8.59D+03 ExpMxC= 1.30D+03 IAcc=2 IRadAn=         4 AccDes= 0.00D+00
 Harris functional with IExCor= 1009 and IRadAn=       4 diagonalized for initial guess.
 HarFok:  IExCor= 1009 AccDes= 0.00D+00 IRadAn=         4 IDoV= 1 UseB2=F ITyADJ=14
 ICtDFT=  3500011 ScaDFX=  1.000000  1.000000  1.000000  1.000000
 FoFCou: FMM=F IPFlag=           0 FMFlag=      100000 FMFlg1=           0
         NFxFlg=           0 DoJE=T BraDBF=F KetDBF=T FulRan=T
         wScrn=  0.000000 ICntrl=       500 IOpCl=  0 I1Cent=   200000004 NGrid=           0
         NMat0=    1 NMatS0=      1 NMatT0=    0 NMatD0=    1 NMtDS0=    0 NMtDT0=    0
 Petite list used in FoFCou.
 Requested convergence on RMS density matrix=1.00D-08 within 128 cycles.
 Requested convergence on MAX density matrix=1.00D-06.
 Requested convergence on             energy=1.00D-06.
 No special actions if energy rises.
 SCF Done:  E(RM062X) =  -576.459430899     A.U. after   20 cycles
            NFock= 20  Conv=0.69D-08     -V/T= 2.0037
 Calling FoFJK, ICntrl=      2127 FMM=F ISym2X=0 I1Cent= 0 IOpClX= 0 NMat=1 NMatS=1 NMatT=0.
 ***** Axes restored to original set *****
 -------------------------------------------------------------------
 Center     Atomic                   Forces (Hartrees/Bohr)
 Number     Number              X              Y              Z
 -------------------------------------------------------------------
      1        6           0.009429767    0.008867028    0.006633031
      2        6           0.004602735   -0.007575845   -0.006721829
      3        6          -0.019544267    0.004747475    0.004388700
      4        1           0.001262180   -0.001536883   -0.000827156
      5        6          -0.010109495    0.001759949    0.004593475
      6        1           0.001396957    0.000404423   -0.000188198
      7        6           0.007885708   -0.021704009   -0.020988005
      8        1           0.001504310    0.001214618    0.000709586
      9        6           0.047662093    0.029075114   -0.010507490
     10        1           0.001216815   -0.001507142   -0.001457184
     11        6          -0.031778392   -0.075684674    0.045922231
     12        6          -0.015760991    0.012324479    0.006621476
     13        6           0.013548209   -0.000080399    0.010485418
     14        1          -0.001512084    0.002075202    0.001148388
     15        6          -0.021312354    0.024165405   -0.034287076
[...]
 9389,0.07254979,0.00043749,0.00007982,0.00058499,-0.00001436,-0.000255
 11,-0.00052814,0.00184559,0.00224197,-0.00023329,-0.00006875,-0.000128
 57,0.00011445,-0.00004514,-0.00074851,-0.00045931,0.00000526,0.0000546
 7,0.00001357,-0.00256723,-0.00175483,0.00172686,-0.00026936,-0.0000999
 0,-0.00001950,0.00102145,-0.00769999,-0.00807765,-0.00055477,0.0004395
 2,0.00028116,-0.04279536,-0.10171113,-0.28226048,-0.00168234,0.0013599
 8,0.00047726,0.00321731,0.00033477,0.00376203,0.00000941,0.00020982,-0
 .00047838,-0.00208011,-0.00701476,-0.00931256,-0.00007192,0.00025751,-
 0.00034624,0.04248034,0.11430164,0.29635424,-0.00013230,0.00027850,0.0
 0052872,0.00006975,-0.00012634,-0.00011991,-0.00113019,-0.00051539,-0.
 00050312,-0.00009772,0.00005093,-0.00007370,-0.00015828,-0.00005048,-0
 .00002419,-0.00001902,-0.00000796,-0.00001649,0.00057831,-0.00046587,-
 0.00010517,-0.00001497,0.00000666,-0.00002667,-0.00004095,0.00403956,0
 .00277547,0.00000406,0.00005820,0.00000544,-0.01709890,0.00583000,-0.0
 1366521,-0.00031952,-0.00038454,-0.00166769,-0.00513741,0.00345857,-0.
 00124290,-0.00029786,0.00020488,-0.00029418,-0.19993932,0.07699508,-0.
 12611789,0.00112156,0.00009729,0.00112839,0.00035027,-0.00086448,0.000
 70739,0.21117329,0.00078496,-0.00033572,0.00009828,-0.00048918,-0.0002
 2025,-0.00066302,-0.00017899,0.00129400,0.00015227,0.00001291,-0.00008
 947,0.00014960,-0.00009149,-0.00002011,0.00043940,0.00002291,0.0000243
 4,0.00001125,-0.00073035,-0.00075561,-0.00056906,0.00000742,0.00001502
 ,-0.00000873,0.00365393,-0.00007348,-0.00152807,0.00002315,-0.00002506
 ,-0.00004241,0.00526437,-0.00132437,0.01032212,0.00145171,-0.00005088,
 -0.00395670,-0.01686677,0.00794641,-0.01069890,-0.00096470,-0.00001145
 ,-0.00034977,0.07906812,-0.07724322,0.05156051,-0.00028897,0.00038350,
 0.00231013,-0.00056750,-0.00052052,0.00047776,-0.08154779,0.07748334,0
 .00045119,-0.00021476,-0.00006667,-0.00024144,-0.00015269,-0.00033225,
 0.00039744,0.00066378,0.00025124,0.00006079,-0.00004490,0.00008208,-0.
 00005707,0.00007883,0.00017684,0.00001482,0.00001044,0.00001248,-0.000
 24927,-0.00055435,-0.00032945,0.00001481,0.00002092,-0.00000605,0.0029
 2321,-0.00148864,-0.00118722,0.00000222,-0.00003334,-0.00002272,0.0116
 1700,-0.00394803,0.01376799,0.00107557,0.00052218,-0.00053697,-0.00474
 102,0.00485848,-0.00738407,-0.00016637,0.00023879,-0.00023823,-0.12375
 814,0.05356691,-0.15378738,-0.00062676,-0.00061369,0.00103632,-0.00051
 391,0.00000208,0.00044699,0.12708018,-0.05909425,0.16528095,-0.0010750
 5,0.00022922,-0.00015933,0.00014459,0.00039656,0.00051582,0.00121155,0
 .00077584,-0.00188384,-0.00012445,-0.00021331,0.00015285,0.00047733,0.
 00189661,-0.00114972,-0.00014094,-0.00022443,0.00014744,-0.00028931,-0
 .00141980,0.00005823,-0.00006924,-0.00017752,-0.00001551,-0.00379245,0
 .00112082,0.00155814,-0.00005424,0.00001659,0.00022551,-0.01057791,-0.
 01521390,0.01431156,-0.02184823,-0.02138893,0.01358962,-0.10371524,-0.
 07231892,-0.01729660,-0.00123517,-0.00028424,0.00021915,-0.06872123,0.
 01740896,0.06028967,0.00731745,0.00888481,-0.00723453,-0.00062057,0.00
 016937,0.00042122,0.01024739,0.01117956,-0.01348807,0.64197000,-0.0010
 2408,0.00044642,0.00032441,0.00153215,-0.00006861,0.00047968,0.0007142
 3,-0.00145973,-0.00006985,0.00001282,0.00001765,-0.00009489,-0.0017820
 4,-0.00000007,-0.00041798,-0.00002560,0.00001822,-0.00009310,0.0067052
 3,-0.00033811,-0.00024281,0.00003791,0.00003234,0.00008963,-0.00344313
 ,0.00292379,-0.00246555,-0.00007873,0.00008175,0.00003929,0.01296312,0
 .00611491,-0.01545165,-0.01187574,-0.00097509,-0.00262428,-0.05612779,
 -0.18393369,-0.01945332,-0.00020541,-0.00159608,0.00225440,0.00881167,
 -0.03533563,0.08466530,-0.01640812,-0.02091795,0.01165512,0.00095732,-
 0.00184982,0.00021552,-0.00685079,-0.00769443,0.00653821,-0.08095072,0
 .50588662,-0.00119565,0.00130624,0.00131008,0.00194721,-0.00068066,-0.
 00025159,0.00114103,-0.00152137,-0.00040642,0.00003183,-0.00003362,-0.
 00010145,-0.00256650,0.00042062,-0.00102439,-0.00003159,-0.00004226,-0
 .00009347,0.00681794,-0.00542137,-0.00044895,0.00011622,0.00001780,0.0
 0010323,-0.00596698,0.00290645,0.00219525,-0.00001311,0.00010428,0.000
 03406,0.01571001,0.00084667,-0.01606158,-0.01915314,-0.00837669,0.0015
 4852,0.02477306,0.04274788,-0.01180248,-0.00123383,0.00072486,-0.00067
 116,0.02289309,0.03178841,-0.18020844,-0.00205024,-0.00416933,0.000309
 66,0.00131179,0.00207931,-0.00097523,0.00936246,0.00935412,-0.01535123
 ,-0.05016313,-0.17048035,0.35943075,-0.00011594,-0.00026054,-0.0003822
 2,-0.00026031,0.00027003,0.00023413,0.00023405,-0.00006357,0.00004079,
 -0.00001201,0.00001218,0.00000387,0.00050939,0.00008960,0.00000379,-0.
 00001070,0.00000006,0.00002284,-0.00077208,0.00050716,0.00060255,-0.00
 002085,-0.00002166,-0.00001809,-0.00040410,-0.00062511,-0.00078591,-0.
 00000206,0.00000569,0.00001333,0.00108049,-0.00018676,-0.00044047,0.00
 125608,-0.00153842,0.00133575,-0.01159885,0.00142509,0.00233696,-0.000
 20882,-0.00003448,-0.00003922,0.00070556,-0.00112870,-0.00097012,0.001
 28258,0.00062336,-0.00075714,0.00001293,-0.00003717,-0.00003716,0.0006
 3872,-0.00010008,0.00015651,-0.33023021,0.03645068,0.05582950,0.345742
 96,-0.00007564,-0.00044752,-0.00057496,-0.00059615,0.00036041,0.000231
 74,0.00026000,0.00008349,0.00003208,-0.00001996,-0.00000327,0.00003063
 ,0.00086070,0.00042845,-0.00007025,-0.00001763,-0.00003235,0.00007139,
 -0.00216038,0.00137116,0.00023526,-0.00002831,-0.00004381,-0.00001754,
 -0.00098490,-0.00023778,-0.00161678,0.00000520,-0.00000822,0.00000875,
 0.00197507,-0.00051073,-0.00134093,0.00218716,-0.00346423,0.00355509,-
 0.02981860,-0.00070225,0.00435768,-0.00032526,-0.00005873,-0.00008122,
 0.00162600,-0.00253935,0.00211114,0.00020914,0.00184478,-0.00197119,0.
 00022499,-0.00010367,-0.00018321,-0.00079260,0.00057223,0.00107032,0.0
 4133493,-0.04683707,0.00255233,-0.03486137,0.04950666,0.00076337,-0.00
 027339,-0.00002710,-0.00048984,-0.00025496,-0.00057091,-0.00064635,-0.
 00000404,0.00076339,0.00003512,0.00007612,-0.00000419,0.00010348,0.000
 19599,0.00016214,0.00003147,0.00001154,0.00002690,-0.00063181,-0.00098
 553,-0.00110704,-0.00000802,0.00000741,-0.00000561,0.00215733,-0.00098
 680,-0.00007436,0.00001862,-0.00000889,-0.00006783,-0.00082145,0.00558
 136,-0.00180534,-0.00154690,-0.00161847,0.00098144,-0.01169155,0.00267
 422,0.00061297,-0.00040344,-0.00009680,-0.00009474,0.03127281,-0.00486
 053,-0.00939339,0.00106079,0.00131483,-0.00011834,0.00038968,-0.000175
 88,-0.00029748,-0.00093775,-0.00233082,0.00148111,0.05330587,0.0042236
 2,-0.04573528,-0.06006990,-0.00083240,0.05235950,0.00021860,-0.0002594
 4,-0.00019917,-0.00009914,-0.00001146,-0.00007086,-0.00002920,0.000240
 01,0.00014697,0.00004091,-0.00001828,0.00001988,-0.00003043,0.00002776
 ,-0.00000927,0.00004536,0.00000395,0.00001345,-0.00037863,0.00023446,-
 0.00005346,0.00001573,0.00001944,0.00002451,-0.00056299,0.00026294,-0.
 00046140,0.00001118,-0.00002213,-0.00002123,-0.00122741,0.00007645,0.0
 0112559,0.00023821,-0.00006675,0.00053103,-0.00123737,0.00112015,-0.00
 124842,-0.00004392,-0.00008072,0.00010019,0.00077569,-0.00213087,0.000
 86026,0.00021824,0.00016720,0.00016457,-0.00003091,-0.00005026,0.00050
 002,0.00008080,0.00079668,-0.00033370,0.00079352,-0.00189428,-0.001506
 76,-0.00050522,0.00112451,0.00114586,0.09526041,0.00028069,-0.00020842
 ,-0.00005122,0.00025045,-0.00006184,0.00008022,-0.00003717,0.00024503,
 0.00039512,0.00008124,-0.00000012,-0.00002367,-0.00017339,-0.00014644,
 -0.00020668,0.00005699,-0.00000522,-0.00002201,0.00012766,0.00003594,0
 .00024643,0.00002739,0.00004537,0.00002098,0.00081389,-0.00060537,-0.0
 0032090,0.00006251,-0.00000663,-0.00015373,-0.00291309,-0.00005067,0.0
 0175383,-0.00043107,0.00060233,0.00007124,0.00063008,0.00058713,0.0015
 4772,0.00043456,0.00012704,-0.00005047,-0.00363894,-0.00475715,0.00478
 440,0.00043000,0.00043046,0.00040044,0.00046268,0.00033994,-0.00037445
 ,-0.00007600,-0.00092833,0.00048824,0.00225000,0.00288833,-0.00734769,
 0.00037501,-0.00012353,-0.00067192,0.02112345,0.12866894,-0.00002923,0
 .00006394,0.00005143,0.00018407,0.00001970,0.00011770,-0.00015066,0.00
 005498,0.00012992,0.00001048,-0.00000556,-0.00001413,-0.00004153,-0.00
 012459,-0.00016281,0.00000130,-0.00001553,-0.00001205,0.00013138,-0.00
 010406,0.00016270,-0.00000616,0.00000808,0.00000269,0.00038677,-0.0004
 5188,-0.00045387,0.00003855,-0.00002822,-0.00003375,0.00003432,0.00011
 782,0.00007654,-0.00019113,-0.00001261,-0.00097661,-0.00222944,-0.0001
 5706,0.00374654,0.00013818,0.00014002,-0.00012479,-0.00291819,-0.00395
 223,0.00240340,0.00059084,0.00063746,-0.00042013,0.00091125,0.00014395
 ,-0.00094775,0.00022345,0.00147676,-0.00074035,0.00378598,0.00419332,-
 0.00126597,0.00049783,-0.00037356,-0.00096598,-0.00021855,0.06506243,0
 .10822666,0.00014668,0.00008291,0.00018871,0.00010207,-0.00017801,-0.0
 0015258,-0.00027115,0.00027703,-0.00001857,0.00001166,-0.00001490,0.00
 001043,-0.00037526,0.00017667,-0.00014456,0.00000712,-0.00002278,0.000
 00238,0.00058251,0.00045225,-0.00079882,0.00000212,-0.00000602,0.00002
 495,0.00066085,0.00056373,0.00008841,-0.00000235,-0.00002624,-0.000008
 51,0.00126239,-0.00099271,0.00127841,0.00215896,-0.00164883,-0.0003837
 8,0.00489491,-0.01301021,0.00546365,-0.00001108,-0.00029834,0.00026397
 ,-0.00015213,-0.00361556,0.00265200,-0.00093524,-0.00159000,0.00109229
 ,-0.00011263,-0.00029645,0.00021711,0.00013953,-0.00027445,0.00027211,
 -0.11991310,0.11159648,-0.05679947,-0.00739757,0.02014934,-0.01262973,
 -0.00063215,0.00029393,-0.00134842,0.11982414,-0.00018574,-0.00000133,
 -0.00017285,-0.00000372,0.00014078,0.00021041,0.00020347,-0.00011527,-
 0.00011484,-0.00000152,-0.00000316,-0.00001204,0.00001206,-0.00012601,
 0.00013096,-0.00000360,0.00000471,-0.00000425,-0.00084390,0.00164829,0
 .00041840,-0.00000591,-0.00001640,-0.00000149,-0.00069048,-0.00020581,
 0.00014850,0.00000352,-0.00001885,0.00000520,0.00022270,-0.00034847,0.
 00132122,0.00483172,0.00125776,-0.00143877,0.00849962,-0.02059921,0.00
 963542,0.00002131,-0.00009096,0.00012110,-0.00595832,0.00280026,-0.002
 57454,-0.00211043,-0.00193715,0.00257931,-0.00028127,-0.00006959,0.000
 12089,0.00053930,0.00085848,-0.00168969,0.10831451,-0.21440338,0.10013
 889,-0.00092170,0.00096282,-0.00130690,-0.00038424,-0.00027514,-0.0005
 6398,-0.11135955,0.23041335,-0.00001235,0.00005809,0.00001694,0.000068
 71,-0.00006098,0.00004342,0.00021297,0.00004145,-0.00007018,0.00000253
 ,-0.00000233,-0.00000835,-0.00009441,-0.00007946,-0.00001627,-0.000004
 84,-0.00000306,-0.00000652,0.00041844,0.00076842,-0.00000376,-0.000010
 60,0.00000687,-0.00002291,0.00039483,-0.00087039,0.00168623,0.00001034
 ,-0.00000134,-0.00002354,-0.00474052,-0.00076498,0.00256900,0.00111325
 ,0.00181549,-0.00009635,0.00693211,-0.00969056,0.00312232,0.00031822,0
 .00009649,-0.00017685,-0.01370644,0.02067678,-0.01447945,-0.00138083,-
 0.00208674,0.00112848,-0.00005430,0.00019026,-0.00006138,0.00296248,0.
 00335172,-0.00268069,-0.05451557,0.10071838,-0.09128373,0.00252817,-0.
 00737025,0.00353444,-0.00103967,0.00033979,-0.00262730,0.06029481,-0.1
 0716282,0.09856638,-0.00001571,0.00000834,0.00000805,0.00003291,-0.000
 00207,0.00002816,0.00003465,-0.00004781,0.00003643,-0.00000006,0.00000
 637,-0.00000542,0.00000384,-0.00001716,-0.00002828,-0.00000752,-0.0000
 0083,-0.00000829,0.00002998,-0.00006104,0.00003658,-0.00000236,0.00000
 231,-0.00000833,0.00009668,-0.00008089,-0.00007736,0.00004007,0.000014
 44,-0.00003804,-0.00081417,-0.00067565,0.00009899,-0.00007455,0.000016
 09,-0.00012321,0.00024587,-0.00001232,0.00082548,0.00003730,0.00006652
 ,-0.00006885,-0.00063788,-0.00066315,-0.00035006,-0.00004791,0.0000443
 0,-0.00003688,0.00012770,-0.00004298,-0.00023764,-0.00001197,-0.000161
 68,0.00011576,0.00041637,0.00071439,0.00015994,-0.00000174,-0.00012135
 ,-0.00023160,-0.06300709,-0.02113775,-0.00814399,0.00005883,0.00016597
 ,0.00012723,0.36614363,-0.00015865,0.00002843,-0.00006818,-0.00015520,
 0.00007919,0.00001109,0.00019262,-0.00010204,-0.00016055,-0.00004381,0
 .00000236,0.00001048,0.00014359,0.00003292,0.00007851,-0.00002878,0.00
 000034,0.00001122,-0.00023528,0.00016354,-0.00004146,-0.00001823,-0.00
 002284,-0.00001039,-0.00048417,0.00018358,-0.00010231,-0.00000585,-0.0
 0002217,0.00006593,0.00115220,0.00009043,-0.00065093,0.00046932,-0.000
 44892,-0.00020322,-0.00058039,-0.00040304,-0.00076699,-0.00025888,-0.0
 0005502,0.00003008,0.00023885,-0.00112287,-0.00386330,-0.00028779,-0.0
 0024247,-0.00020561,0.00024231,-0.00008347,0.00017651,0.00005275,0.000
 67903,-0.00021225,-0.00225700,-0.00360034,0.00281640,0.00005321,0.0001
 2915,0.00042476,0.01323769,-0.12699661,-0.08030634,-0.00015472,0.00015
 115,0.00005113,0.08063686,0.20040755,-0.00003368,-0.00004856,-0.000009
 03,-0.00008151,0.00002226,-0.00001846,0.00010745,-0.00007041,-0.000070
 46,-0.00001235,0.00001279,-0.00000256,0.00005303,0.00004811,0.00007827
 ,-0.00000945,0.00000973,0.00000010,-0.00007873,0.00011428,-0.00003334,
 0.00000120,-0.00000328,-0.00000975,-0.00027811,0.00022799,0.00005406,0
 .00000158,0.00001903,-0.00001639,0.00089462,0.00031086,-0.00013647,0.0
 0019612,-0.00017378,0.00027435,0.00096365,-0.00025399,-0.00179886,-0.0
 0012463,-0.00006948,0.00006876,0.00095633,0.00152637,-0.00223615,-0.00
 037384,-0.00038323,0.00007402,-0.00033809,0.00006431,-0.00001445,-0.00
 001092,-0.00045232,0.00015158,-0.00313619,-0.00438623,0.00070224,0.000
 01321,0.00014250,0.00034500,0.01884562,-0.06714483,-0.11357698,0.00047
 373,0.00017138,0.00088244,-0.06343728,0.06894800,0.15331931,-0.0000610
 3,0.00009469,0.00008734,0.00004652,-0.00000441,0.00002773,-0.00003090,
 -0.00005142,0.00003572,-0.00001495,0.00001445,-0.00000829,0.00000606,-
 0.00000762,-0.00001144,-0.00002793,-0.00000517,-0.00001336,0.00014937,
 -0.00011561,-0.00003580,-0.00000885,-0.00001086,-0.00001779,0.00043212
 ,-0.00016906,0.00018332,0.00004004,0.00001740,-0.00003655,-0.00040685,
 -0.00060985,-0.00016460,-0.00007313,-0.00007777,-0.00019431,0.00003633
 ,-0.00042452,0.00015921,-0.00000506,0.00002277,-0.00004178,-0.00050211
 ,-0.00014582,-0.00048820,-0.00004480,-0.00009864,-0.00006032,0.0001456
 7,0.00030370,-0.00034064,0.00001412,0.00000565,-0.00000257,-0.00023830
 ,0.00016888,0.00043150,0.00005504,-0.00013985,-0.00009862,-0.02648109,
 0.00233427,0.00520706,0.00000874,-0.00002760,0.00022746,-0.27863415,-0
 .04512867,0.02231402,0.34774694,-0.00005535,0.00012003,0.00009232,-0.0
 0002158,-0.00002160,-0.00003194,-0.00011023,-0.00007164,-0.00006695,-0
 .00002788,0.00000443,0.00000248,0.00002066,0.00002854,0.00002862,-0.00
 002231,-0.00000125,-0.00000041,0.00009941,-0.00017051,-0.00013097,-0.0
 0001104,-0.00000660,-0.00001372,0.00034707,-0.00014057,0.00011325,-0.0
 0000714,-0.00000706,0.00003532,-0.00058455,-0.00065095,-0.00010538,-0.
 00009398,-0.00001478,-0.00007947,-0.00005318,-0.00017444,0.00038854,-0
 .00001485,0.00005097,-0.00007448,-0.00035960,-0.00020880,-0.00035575,-
 0.00002773,-0.00002486,-0.00004060,0.00017202,0.00007419,-0.00034233,0
 .00005023,0.00006481,-0.00000872,0.00020271,0.00026022,0.00036845,-0.0
 0006303,-0.00000596,-0.00001337,-0.03265980,0.00205241,0.01265881,0.00
 000561,-0.00001562,0.00010656,-0.06138117,-0.07110985,0.00422504,0.033
 74512,0.49247813,0.00002703,-0.00002244,-0.00004070,-0.00006043,0.0000
 0457,-0.00001289,0.00003261,-0.00002337,-0.00007591,-0.00000381,-0.000
 00226,0.00000294,0.00003758,0.00002264,0.00005494,0.00000967,0.0000080
 4,0.00000821,-0.00007842,0.00004525,0.00004381,0.00000758,0.00000619,0
 .00000502,-0.00010186,0.00005073,0.00016508,-0.00003903,0.00000994,0.0
 0002050,0.00017354,-0.00010169,-0.00025418,0.00017382,0.00003044,0.000
 18924,-0.00012593,0.00010093,0.00000856,0.00000716,0.00000351,-0.00000
 403,0.00009538,0.00013916,0.00033322,0.00000535,0.00005135,0.00002744,
 -0.00026213,-0.00015788,0.00029176,-0.00000369,-0.00008301,0.00001129,
 0.00044473,0.00042977,-0.00015577,-0.00016069,0.00013171,-0.00002431,-
 0.01692852,0.00284960,0.00594188,0.00009781,0.00005693,0.00000934,0.06
 785245,0.01100320,-0.03449705,-0.02030917,-0.24654388,0.15964605,-0.00
 000550,0.00003225,0.00001237,-0.00000358,-0.00000663,-0.00001512,-0.00
 002736,0.00001042,-0.00001056,-0.00000571,-0.00000508,0.00000322,-0.00
 000839,0.00000109,-0.00000386,0.00000092,-0.00000226,0.00000372,0.0000
 2662,-0.00003112,-0.00004428,-0.00000242,0.00000029,0.00000257,0.00007
 415,-0.00004719,-0.00001349,-0.00000746,-0.00001384,0.00002375,-0.0000
 9981,-0.00006706,0.00005093,-0.00005294,0.00000821,-0.00004891,-0.0000
 1567,-0.00004709,0.00012947,0.00000639,0.00001302,-0.00000906,-0.00016
 730,-0.00011852,-0.00014426,0.00000456,0.00001324,-0.00002938,0.000069
 76,0.00000465,-0.00009781,-0.00001940,-0.00000942,-0.00000329,0.000067
 43,0.00000156,0.00015478,0.00002265,-0.00001506,-0.00007742,-0.0034331
 0,-0.00162739,0.00313584,-0.00005783,-0.00003622,-0.00005201,-0.024012
 71,-0.04662197,0.02309421,-0.04215179,0.06085059,-0.03089103,0.0697984
 9,0.00004827,-0.00003264,-0.00000824,0.00002867,-0.00001310,-0.0000021
 9,-0.00003122,0.00004226,0.00003683,0.00001677,-0.00000327,-0.00000242
 ,-0.00003753,-0.00000855,-0.00002307,0.00001397,0.00000087,0.00000119,
 0.00000276,0.00000401,0.00001757,0.00000531,0.00000647,0.00000798,-0.0
 0002960,0.00000447,-0.00001876,-0.00000914,0.00000126,-0.00000868,-0.0
 0002998,0.00007987,0.00003167,-0.00005539,0.00004965,-0.00001145,0.000
 03378,0.00006316,0.00017191,0.00002698,0.00000453,0.00000941,-0.000061
 31,-0.00013265,0.00016970,0.00003373,0.00005052,-0.00000906,-0.0000632
 2,-0.00005154,0.00004240,0.00002028,-0.00002826,-0.00000385,0.00026828
 ,0.00033976,-0.00009938,0.00003051,-0.00014069,-0.00008915,-0.00085648
 ,-0.00185745,0.00151837,-0.00010918,-0.00001126,-0.00012851,0.00273026
 ,0.00226198,-0.00285656,0.01030996,-0.42250923,0.23199057,-0.01228647,
 0.42187983,-0.00001315,0.00000954,0.00000927,0.00002435,0.00000784,0.0
 0000620,-0.00000195,0.00001977,0.00002650,0.00000381,-0.00000189,0.000
 00098,-0.00001262,-0.00000930,-0.00002158,-0.00000418,-0.00000498,-0.0
 0000130,0.00002341,-0.00001716,0.00000234,-0.00000328,-0.00000690,0.00
 000073,0.00002757,-0.00000189,-0.00001399,0.00001011,-0.00000009,-0.00
 000809,-0.00000142,0.00000629,-0.00002206,-0.00002819,-0.00002938,-0.0
 0009380,-0.00006835,-0.00008024,0.00007495,-0.00000696,0.00000102,-0.0
 0000348,-0.00004430,-0.00016307,-0.00025102,0.00000031,-0.00000679,-0.
 00003273,0.00003835,0.00002177,-0.00004149,0.00003550,0.00007313,-0.00
 003558,0.00001670,-0.00004662,0.00020335,0.00004168,-0.00009833,0.0000
 2498,-0.00138695,-0.00167285,0.00146300,-0.00013631,-0.00001643,-0.000
 00170,0.00350616,0.00296425,-0.00353018,-0.00684992,0.22978859,-0.1316
 9443,0.00482963,-0.23073629,0.13393912\\0.00007314,0.00001209,0.000086
 69,-0.00004157,-0.00002253,-0.00000438,-0.00011223,0.00006157,0.000027
 49,-0.00000739,-0.00002183,0.00004449,-0.00000547,0.00003095,0.0000105
 0,-0.00000086,0.00000829,0.00002902,0.00006386,-0.00012840,-0.00011412
 ,-0.00001682,0.00002254,0.00000805,0.00004701,0.00008616,-0.00005685,0
 .00003405,0.00012997,0.00024010,-0.00006478,-0.00005425,0.00015096,0.0
 0004302,0.00006296,0.00013106,0.00000772,0.00015155,-0.00017341,0.0000
 2061,0.00003694,-0.00001835,0.00028169,-0.00002920,-0.00004795,-0.0000
 0555,0.00006012,-0.00005519,-0.00000099,-0.00003366,-0.00000733,0.0000
 0126,0.00002507,0.00007229,-0.00030624,-0.00003284,-0.00017835,-0.0000
 9974,-0.00003712,0.00001453,-0.01669809,-0.06441157,-0.05286099,0.0000
 2866,-0.00004529,0.00002898,0.01661037,0.06365044,0.05214049,0.0000657
 8,0.00051154,0.00053718,0.00008257,-0.00003351,-0.00000492\\\@


 UNLESS WE CHANGE DIRECTIONS, WE WILL WIND UP WHERE WE ARE HEADED.
     -- CONFUCIUS
 Job cpu time:       0 days  8 hours 18 minutes 49.8 seconds.
 Elapsed time:       0 days  0 hours 24 minutes 57.3 seconds.
 File lengths (MBytes):  RWF=   1728 Int=      0 D2E=      0 Chk=     48 Scr=     32
 Normal termination of Gaussian 16 at Tue Feb  5 12:46:30 2019.
