 Entering Gaussian System, Link 0=g16
 Input=rxn907.com
 Output=rxn907.log
 Initial command:
 /shared/centos7/gaussian/g16/l1.exe "/scratch/dinius.ab/QMscratch/Gau-13807.inp" -scrdir="/scratch/dinius.ab/QMscratch/"
 Default is to use a total of  20 processors:
                               20 via shared-memory
                                1 via Linda
 Entering Link 1 = /shared/centos7/gaussian/g16/l1.exe PID=     13808.
  
 Copyright (c) 1988,1990,1992,1993,1995,1998,2003,2009,2016,
            Gaussian, Inc.  All Rights Reserved.
  
 This is part of the Gaussian(R) 16 program.  It is based on
 the Gaussian(R) 09 system (copyright 2009, Gaussian, Inc.),
 the Gaussian(R) 03 system (copyright 2003, Gaussian, Inc.),
 the Gaussian(R) 98 system (copyright 1998, Gaussian, Inc.),
 the Gaussian(R) 94 system (copyright 1995, Gaussian, Inc.),
 the Gaussian 92(TM) system (copyright 1992, Gaussian, Inc.),
 the Gaussian 90(TM) system (copyright 1990, Gaussian, Inc.),
 the Gaussian 88(TM) system (copyright 1988, Gaussian, Inc.),
 the Gaussian 86(TM) system (copyright 1986, Carnegie Mellon
 University), and the Gaussian 82(TM) system (copyright 1983,
 Carnegie Mellon University). Gaussian is a federally registered
 trademark of Gaussian, Inc.
  
 This software contains proprietary and confidential information,
 including trade secrets, belonging to Gaussian, Inc.
  
 This software is provided under written license and may be
 used, copied, transmitted, or stored only in accord with that
 written license.
  
 The following legend is applicable only to US Government
 contracts under FAR:
  
                    RESTRICTED RIGHTS LEGEND
  
 Use, reproduction and disclosure by the US Government is
 subject to restrictions as set forth in subparagraphs (a)
 and (c) of the Commercial Computer Software - Restricted
 Rights clause in FAR 52.227-19.
  
 Gaussian, Inc.
 340 Quinnipiac St., Bldg. 40, Wallingford CT 06492
  
  
 ---------------------------------------------------------------
 Warning -- This program may not be used in any manner that
 competes with the business of Gaussian, Inc. or will provide
 assistance to any competitor of Gaussian, Inc.  The licensee
 of this program is prohibited from giving any competitor of
 Gaussian, Inc. access to this program.  By using this program,
 the user acknowledges that Gaussian, Inc. is engaged in the
 business of creating and licensing software in the field of
 computational chemistry and represents and warrants to the
 licensee that it is not a competitor of Gaussian, Inc. and that
 it will not use this program in any manner prohibited above.
 ---------------------------------------------------------------
  

 Cite this work as:
 Gaussian 16, Revision A.03,
 M. J. Frisch, G. W. Trucks, H. B. Schlegel, G. E. Scuseria, 
 M. A. Robb, J. R. Cheeseman, G. Scalmani, V. Barone, 
 G. A. Petersson, H. Nakatsuji, X. Li, M. Caricato, A. V. Marenich, 
 J. Bloino, B. G. Janesko, R. Gomperts, B. Mennucci, H. P. Hratchian, 
 J. V. Ortiz, A. F. Izmaylov, J. L. Sonnenberg, D. Williams-Young, 
 F. Ding, F. Lipparini, F. Egidi, J. Goings, B. Peng, A. Petrone, 
 T. Henderson, D. Ranasinghe, V. G. Zakrzewski, J. Gao, N. Rega, 
 G. Zheng, W. Liang, M. Hada, M. Ehara, K. Toyota, R. Fukuda, 
 J. Hasegawa, M. Ishida, T. Nakajima, Y. Honda, O. Kitao, H. Nakai, 
 T. Vreven, K. Throssell, J. A. Montgomery, Jr., J. E. Peralta, 
 F. Ogliaro, M. J. Bearpark, J. J. Heyd, E. N. Brothers, K. N. Kudin, 
 V. N. Staroverov, T. A. Keith, R. Kobayashi, J. Normand, 
 K. Raghavachari, A. P. Rendell, J. C. Burant, S. S. Iyengar, 
 J. Tomasi, M. Cossi, J. M. Millam, M. Klene, C. Adamo, R. Cammi, 
 J. W. Ochterski, R. L. Martin, K. Morokuma, O. Farkas, 
 J. B. Foresman, and D. J. Fox, Gaussian, Inc., Wallingford CT, 2016.
 
 ******************************************
 Gaussian 16:  EM64L-G16RevA.03 25-Dec-2016
                 5-Feb-2019 
 ******************************************
 ----------------------------------------------------------------------
 #m062x/6-311+g(2df,2p) Opt=(ModRedun,Loose,maxcycle=1000) Int(Grid=SG1
 ) freq
 ----------------------------------------------------------------------
 1/6=1000,7=-1,18=120,19=15,26=2,38=1/1,3;
 2/9=110,12=2,17=6,18=5,40=1/2;
 3/5=4,6=6,7=214,11=2,25=1,30=1,71=1,74=-55,75=1/1,2,3;
 4//1;
 5/5=2,38=5/2;
 6/7=2,8=2,9=2,10=2,28=1/1;
 7//1,2,3,16;
 1/6=1000,7=-1,18=20,19=15,26=2/3(2);
 2/9=110/2;
 99//99;
 2/9=110/2;
 3/5=4,6=6,7=214,11=2,25=1,30=1,71=1,74=-55,75=1/1,2,3;
 4/5=5,16=3,69=1/1;
 5/5=2,38=5/2;
 7//1,2,3,16;
 1/6=1000,7=-1,18=20,19=15,26=2/3(-5);
 2/9=110/2;
 6/7=2,8=2,9=2,10=2,19=2,28=1/1;
 99/9=1/99;
 -----
 Title
 -----
 Symbolic Z-matrix:
 Charge =  0 Multiplicity = 2
 C                    -9.03665   2.62049   3.68442 
 C                    -9.37684   1.56491   2.84207 
 C                    -7.70378   3.00427   3.81514 
 H                    -9.81179   3.15168   4.23136 
 C                    -8.38323   0.88826   2.13764 
 H                    -10.41745   1.26917   2.73373 
 C                    -7.0442    1.25644   2.27901 
 H                    -8.65625   0.06315   1.48405 
 C                    -6.70493   2.32541   3.11499 
 H                    -7.44705   3.84353   4.45735 
 C                    -5.26349   2.79778   3.19692 
 C                    -5.99373   0.51218   1.53179 
 C                    -4.71386   0.74985   1.79855 
 H                    -6.27452  -0.23858   0.79681 
 C                    -4.22089   1.70913   2.86773 
 H                    -3.94789   0.1916    1.26496 
 H                    -5.04772   3.25889   4.16428 
 H                    -4.02743   1.13202   3.77547 
 C                    -2.89806   2.37663   2.44003 
 H                    -2.13587   1.61933   2.23967 
 H                    -2.52296   3.03868   3.22679 
 H                    -3.04233   2.9664    1.53111 
 O                    -2.02092   3.66153   3.98545 
 O                    -1.31102   4.45321   5.00061 
 H                    -0.74528   4.98984   4.41553 
 
 The following ModRedundant input section has been read:
 B      21      23 F                                                           
 

 GradGradGradGradGradGradGradGradGradGradGradGradGradGradGradGradGradGrad
 Berny optimization.
 Initialization pass.
                           ----------------------------
                           !    Initial Parameters    !
                           ! (Angstroms and Degrees)  !
 --------------------------                            --------------------------
 ! Name  Definition              Value          Derivative Info.                !
 --------------------------------------------------------------------------------
 ! R1    R(1,2)                  1.3927         estimate D2E/DX2                !
 ! R2    R(1,3)                  1.3932         estimate D2E/DX2                !
 ! R3    R(1,4)                  1.0873         estimate D2E/DX2                !
 ! R4    R(2,5)                  1.3933         estimate D2E/DX2                !
 ! R5    R(2,6)                  1.0872         estimate D2E/DX2                !
 ! R6    R(3,9)                  1.396          estimate D2E/DX2                !
 ! R7    R(3,10)                 1.0875         estimate D2E/DX2                !
 ! R8    R(5,7)                  1.3959         estimate D2E/DX2                !
 ! R9    R(5,8)                  1.0874         estimate D2E/DX2                !
 ! R10   R(7,9)                  1.3988         estimate D2E/DX2                !
 ! R11   R(7,12)                 1.4885         estimate D2E/DX2                !
 ! R12   R(9,11)                 1.5191         estimate D2E/DX2                !
 ! R13   R(11,15)                1.5429         estimate D2E/DX2                !
 ! R14   R(11,17)                1.0931         estimate D2E/DX2                !
 ! R15   R(12,13)                1.3288         estimate D2E/DX2                !
 ! R16   R(12,14)                1.0875         estimate D2E/DX2                !
 ! R17   R(13,15)                1.5187         estimate D2E/DX2                !
 ! R18   R(13,16)                1.0877         estimate D2E/DX2                !
 ! R19   R(15,18)                1.0929         estimate D2E/DX2                !
 ! R20   R(15,19)                1.5422         estimate D2E/DX2                !
 ! R21   R(19,20)                1.093          estimate D2E/DX2                !
 ! R22   R(19,21)                1.0945         estimate D2E/DX2                !
 ! R23   R(19,22)                1.0931         estimate D2E/DX2                !
 ! R24   R(21,23)                1.1025         Frozen                          !
 ! R25   R(23,24)                1.4701         estimate D2E/DX2                !
 ! R26   R(24,25)                0.9749         estimate D2E/DX2                !
 ! A1    A(2,1,3)              119.9502         estimate D2E/DX2                !
 ! A2    A(2,1,4)              120.0276         estimate D2E/DX2                !
 ! A3    A(3,1,4)              120.0189         estimate D2E/DX2                !
 ! A4    A(1,2,5)              119.9796         estimate D2E/DX2                !
 ! A5    A(1,2,6)              120.016          estimate D2E/DX2                !
 ! A6    A(5,2,6)              120.0044         estimate D2E/DX2                !
 ! A7    A(1,3,9)              120.2337         estimate D2E/DX2                !
 ! A8    A(1,3,10)             119.5938         estimate D2E/DX2                !
 ! A9    A(9,3,10)             120.1688         estimate D2E/DX2                !
 ! A10   A(2,5,7)              120.3165         estimate D2E/DX2                !
 ! A11   A(2,5,8)              119.5586         estimate D2E/DX2                !
 ! A12   A(7,5,8)              120.1216         estimate D2E/DX2                !
 ! A13   A(5,7,9)              119.6533         estimate D2E/DX2                !
 ! A14   A(5,7,12)             119.6195         estimate D2E/DX2                !
 ! A15   A(9,7,12)             120.7262         estimate D2E/DX2                !
 ! A16   A(3,9,7)              119.8564         estimate D2E/DX2                !
 ! A17   A(3,9,11)             120.0451         estimate D2E/DX2                !
 ! A18   A(7,9,11)             120.0009         estimate D2E/DX2                !
 ! A19   A(9,11,15)            114.223          estimate D2E/DX2                !
 ! A20   A(9,11,17)            111.481          estimate D2E/DX2                !
 ! A21   A(15,11,17)           110.6744         estimate D2E/DX2                !
 ! A22   A(7,12,13)            119.3087         estimate D2E/DX2                !
 ! A23   A(7,12,14)            120.1468         estimate D2E/DX2                !
 ! A24   A(13,12,14)           120.52           estimate D2E/DX2                !
 ! A25   A(12,13,15)           124.5387         estimate D2E/DX2                !
 ! A26   A(12,13,16)           119.2094         estimate D2E/DX2                !
 ! A27   A(15,13,16)           116.166          estimate D2E/DX2                !
 ! A28   A(11,15,13)           112.12           estimate D2E/DX2                !
 ! A29   A(11,15,18)           108.3601         estimate D2E/DX2                !
 ! A30   A(11,15,19)           109.4751         estimate D2E/DX2                !
 ! A31   A(13,15,18)           107.978          estimate D2E/DX2                !
 ! A32   A(13,15,19)           110.8904         estimate D2E/DX2                !
 ! A33   A(18,15,19)           107.8821         estimate D2E/DX2                !
 ! A34   A(15,19,20)           110.4327         estimate D2E/DX2                !
 ! A35   A(15,19,21)           110.8799         estimate D2E/DX2                !
 ! A36   A(15,19,22)           110.5444         estimate D2E/DX2                !
 ! A37   A(20,19,21)           108.173          estimate D2E/DX2                !
 ! A38   A(20,19,22)           108.2678         estimate D2E/DX2                !
 ! A39   A(21,19,22)           108.4566         estimate D2E/DX2                !
 ! A40   A(23,24,25)            99.3366         estimate D2E/DX2                !
 ! A41   L(19,21,23,3,-1)      186.9708         estimate D2E/DX2                !
 ! A42   L(21,23,24,10,-1)     181.7467         estimate D2E/DX2                !
 ! A43   L(19,21,23,3,-2)      178.7221         estimate D2E/DX2                !
 ! A44   L(21,23,24,10,-2)     178.5647         estimate D2E/DX2                !
 ! D1    D(3,1,2,5)              0.4121         estimate D2E/DX2                !
 ! D2    D(3,1,2,6)           -179.5579         estimate D2E/DX2                !
 ! D3    D(4,1,2,5)            179.75           estimate D2E/DX2                !
 ! D4    D(4,1,2,6)             -0.2199         estimate D2E/DX2                !
 ! D5    D(2,1,3,9)             -0.6615         estimate D2E/DX2                !
 ! D6    D(2,1,3,10)           178.6422         estimate D2E/DX2                !
 ! D7    D(4,1,3,9)           -179.9995         estimate D2E/DX2                !
 ! D8    D(4,1,3,10)            -0.6958         estimate D2E/DX2                !
 ! D9    D(1,2,5,7)              0.4779         estimate D2E/DX2                !
 ! D10   D(1,2,5,8)            179.8211         estimate D2E/DX2                !
 ! D11   D(6,2,5,7)           -179.5521         estimate D2E/DX2                !
 ! D12   D(6,2,5,8)             -0.2089         estimate D2E/DX2                !
 ! D13   D(1,3,9,7)              0.0223         estimate D2E/DX2                !
 ! D14   D(1,3,9,11)           176.4308         estimate D2E/DX2                !
 ! D15   D(10,3,9,7)          -179.2774         estimate D2E/DX2                !
 ! D16   D(10,3,9,11)           -2.8689         estimate D2E/DX2                !
 ! D17   D(2,5,7,9)             -1.1134         estimate D2E/DX2                !
 ! D18   D(2,5,7,12)           179.2575         estimate D2E/DX2                !
 ! D19   D(8,5,7,9)            179.5472         estimate D2E/DX2                !
 ! D20   D(8,5,7,12)            -0.082          estimate D2E/DX2                !
 ! D21   D(5,7,9,3)              0.8612         estimate D2E/DX2                !
 ! D22   D(5,7,9,11)          -175.5489         estimate D2E/DX2                !
 ! D23   D(12,7,9,3)          -179.5139         estimate D2E/DX2                !
 ! D24   D(12,7,9,11)            4.076          estimate D2E/DX2                !
 ! D25   D(5,7,12,13)         -171.3892         estimate D2E/DX2                !
 ! D26   D(5,7,12,14)            6.8218         estimate D2E/DX2                !
 ! D27   D(9,7,12,13)            8.9857         estimate D2E/DX2                !
 ! D28   D(9,7,12,14)         -172.8033         estimate D2E/DX2                !
 ! D29   D(3,9,11,15)          157.2899         estimate D2E/DX2                !
 ! D30   D(3,9,11,17)           30.9133         estimate D2E/DX2                !
 ! D31   D(7,9,11,15)          -26.3068         estimate D2E/DX2                !
 ! D32   D(7,9,11,17)         -152.6835         estimate D2E/DX2                !
 ! D33   D(9,11,15,13)          34.4224         estimate D2E/DX2                !
 ! D34   D(9,11,15,18)         -84.6518         estimate D2E/DX2                !
 ! D35   D(9,11,15,19)         157.9272         estimate D2E/DX2                !
 ! D36   D(17,11,15,13)        161.2178         estimate D2E/DX2                !
 ! D37   D(17,11,15,18)         42.1437         estimate D2E/DX2                !
 ! D38   D(17,11,15,19)        -75.2773         estimate D2E/DX2                !
 ! D39   D(7,12,13,15)           2.36           estimate D2E/DX2                !
 ! D40   D(7,12,13,16)         178.8531         estimate D2E/DX2                !
 ! D41   D(14,12,13,15)       -175.8441         estimate D2E/DX2                !
 ! D42   D(14,12,13,16)          0.649          estimate D2E/DX2                !
 ! D43   D(12,13,15,11)        -24.3352         estimate D2E/DX2                !
 ! D44   D(12,13,15,18)         94.9635         estimate D2E/DX2                !
 ! D45   D(12,13,15,19)       -147.0422         estimate D2E/DX2                !
 ! D46   D(16,13,15,11)        159.0752         estimate D2E/DX2                !
 ! D47   D(16,13,15,18)        -81.6261         estimate D2E/DX2                !
 ! D48   D(16,13,15,19)         36.3682         estimate D2E/DX2                !
 ! D49   D(11,15,19,20)        177.8431         estimate D2E/DX2                !
 ! D50   D(11,15,19,21)         57.9533         estimate D2E/DX2                !
 ! D51   D(11,15,19,22)        -62.3655         estimate D2E/DX2                !
 ! D52   D(13,15,19,20)        -57.9301         estimate D2E/DX2                !
 ! D53   D(13,15,19,21)       -177.8199         estimate D2E/DX2                !
 ! D54   D(13,15,19,22)         61.8613         estimate D2E/DX2                !
 ! D55   D(18,15,19,20)         60.1226         estimate D2E/DX2                !
 ! D56   D(18,15,19,21)        -59.7673         estimate D2E/DX2                !
 ! D57   D(18,15,19,22)        179.9139         estimate D2E/DX2                !
 ! D58   D(15,19,24,25)       -159.8337         estimate D2E/DX2                !
 ! D59   D(20,19,24,25)         80.1677         estimate D2E/DX2                !
 ! D60   D(22,19,24,25)        -34.6653         estimate D2E/DX2                !
 --------------------------------------------------------------------------------
 Trust Radius=3.00D-01 FncErr=1.00D-05 GrdErr=1.00D-04 EigMax=2.50D+02 EigMin=1.00D-04
 Number of steps in this run=    150 maximum allowed number of steps=    150.
 GradGradGradGradGradGradGradGradGradGradGradGradGradGradGradGradGradGrad

                          Input orientation:                          
 ---------------------------------------------------------------------
 Center     Atomic      Atomic             Coordinates (Angstroms)
 Number     Number       Type             X           Y           Z
 ---------------------------------------------------------------------
      1          6           0       -9.036650    2.620490    3.684420
      2          6           0       -9.376840    1.564910    2.842070
      3          6           0       -7.703780    3.004270    3.815140
      4          1           0       -9.811790    3.151680    4.231360
      5          6           0       -8.383230    0.888260    2.137640
      6          1           0      -10.417450    1.269170    2.733730
      7          6           0       -7.044200    1.256440    2.279010
      8          1           0       -8.656250    0.063150    1.484050
      9          6           0       -6.704930    2.325410    3.114990
     10          1           0       -7.447050    3.843530    4.457350
     11          6           0       -5.263490    2.797780    3.196920
     12          6           0       -5.993730    0.512180    1.531790
     13          6           0       -4.713860    0.749850    1.798550
     14          1           0       -6.274520   -0.238580    0.796810
     15          6           0       -4.220890    1.709130    2.867730
     16          1           0       -3.947890    0.191600    1.264960
     17          1           0       -5.047720    3.258890    4.164280
     18          1           0       -4.027430    1.132020    3.775470
     19          6           0       -2.898060    2.376630    2.440030
     20          1           0       -2.135870    1.619330    2.239670
     21          1           0       -2.522960    3.038680    3.226790
     22          1           0       -3.042330    2.966400    1.531110
     23          8           0       -2.020920    3.661530    3.985450
     24          8           0       -1.311020    4.453210    5.000610
     25          1           0       -0.745280    4.989840    4.415530
 ---------------------------------------------------------------------
                    Distance matrix (angstroms):
                    1          2          3          4          5
     1  C    0.000000
     2  C    1.392671   0.000000
     3  C    1.393168   2.412002   0.000000
     4  H    1.087266   2.153404   2.153758   0.000000
     5  C    2.412490   1.393319   2.784449   3.398164   0.000000
     6  H    2.153250   1.087230   3.397650   2.480638   2.153710
     7  C    2.793862   2.419380   2.418605   3.881129   1.395902
     8  H    3.395043   2.149128   3.871869   4.292086   1.087440
     9  C    2.418314   2.791406   1.395981   3.403173   2.416051
    10  H    2.149436   3.394897   1.087521   2.474212   3.871835
    11  C    3.808651   4.308774   2.525836   4.677857   3.808033
    12  C    4.282307   3.777633   3.787938   5.369564   2.493632
    13  C    5.073688   4.847333   4.253077   6.138098   3.687603
    14  H    4.913444   4.130382   4.655016   5.983500   2.741213
    15  C    4.968813   5.158030   3.834775   5.932841   4.304873
    16  H    6.135859   5.817796   5.340528   7.207422   4.573745
    17  H    4.068093   4.833124   2.690982   4.765748   4.566485
    18  H    5.226482   5.447460   4.125826   6.143752   4.659925
    19  C    6.268194   6.541798   5.037837   7.183956   5.691553
    20  H    7.121123   7.266188   5.949940   8.076798   6.290817
    21  H    6.543124   7.021088   5.214234   7.358599   6.336665
    22  H    6.378736   6.618822   5.191083   7.290492   5.762964
    23  O    7.098933   7.733867   5.723277   7.811407   7.182229
    24  O    8.048390   8.835102   6.661242   8.634166   8.421497
    25  H    8.654199   9.418585   7.261107   9.252803   8.963817
                    6          7          8          9         10
     6  H    0.000000
     7  C    3.403784   0.000000
     8  H    2.473461   2.157454   0.000000
     9  C    3.878635   1.398808   3.403738   0.000000
    10  H    4.292024   3.405949   4.959229   2.158092   0.000000
    11  C    5.395785   2.527690   4.682194   1.519077   2.729507
    12  C    4.646180   1.488539   2.700541   2.510006   4.665719
    13  C    5.803033   2.432686   4.014088   2.860029   4.910234
    14  H    4.815479   2.241519   2.497194   3.483282   5.606960
    15  C    6.213604   2.919349   4.929122   2.571263   4.182184
    16  H    6.721135   3.427728   4.715205   3.946774   5.980975
    17  H    5.902496   3.398526   5.515240   2.172266   2.486861
    18  H    6.475831   3.369833   5.274378   3.004899   4.417131
    19  C    7.606179   4.297817   6.278761   3.866582   5.187937
    20  H    8.303690   4.921884   6.745963   4.705427   6.170397
    21  H    8.105384   4.951391   7.036204   4.243834   5.138942
    22  H    7.662851   4.415686   6.320378   4.041557   5.360391
    23  O    8.819972   5.824924   7.951915   4.948016   5.449651
    24  O    9.909789   7.106040   9.251553   6.097324   6.190130
    25  H   10.498700   7.627541   9.769816   6.656427   6.799228
                   11         12         13         14         15
    11  C    0.000000
    12  C    2.920595   0.000000
    13  C    2.539990   1.328802   0.000000
    14  H    4.000274   1.087511   2.101461   0.000000
    15  C    1.542900   2.521981   1.518678   3.507090   0.000000
    16  H    3.500778   2.087925   1.087691   2.411934   2.224027
    17  H    1.093144   3.920377   3.464596   5.007713   2.183219
    18  H    2.153444   3.047070   2.127311   3.974968   1.092920
    19  C    2.519029   3.726157   2.520920   4.576022   1.542194
    20  H    3.476648   4.075532   2.756196   4.760472   2.179411
    21  H    2.751260   4.615460   3.475436   5.542512   2.186228
    22  H    2.781530   3.838484   2.789020   4.610656   2.180891
    23  O    3.447043   5.632235   4.529055   6.593284   3.146590
    24  O    4.649276   7.035069   5.962163   8.020047   4.532824
    25  H    5.167626   7.477407   6.369908   8.426387   5.023804
                   16         17         18         19         20
    16  H    0.000000
    17  H    4.361645   0.000000
    18  H    2.682047   2.390762   0.000000
    19  C    2.693936   2.893520   2.146609   0.000000
    20  H    2.504374   3.856313   2.484784   1.092969   0.000000
    21  H    3.739661   2.702183   2.489946   1.094533   1.771666
    22  H    2.930937   3.322758   3.061458   1.093059   1.771532
    23  O    4.811932   3.058695   3.235521   2.192867   2.689153
    24  O    6.250559   4.011082   4.462080   3.658886   4.041540
    25  H    6.573120   4.644384   5.105385   3.919940   4.245992
                   21         22         23         24         25
    21  H    0.000000
    22  H    1.774909   0.000000
    23  O    1.102520   2.747775   0.000000
    24  O    2.572184   4.152766   1.470124   0.000000
    25  H    2.894870   4.206023   1.891199   0.974860   0.000000
 Stoichiometry    C11H12O2(2)
 Framework group  C1[X(C11H12O2)]
 Deg. of freedom    69
 Full point group                 C1      NOp   1
 Largest Abelian subgroup         C1      NOp   1
 Largest concise Abelian subgroup C1      NOp   1
                         Standard orientation:                         
 ---------------------------------------------------------------------
 Center     Atomic      Atomic             Coordinates (Angstroms)
 Number     Number       Type             X           Y           Z
 ---------------------------------------------------------------------
      1          6           0       -3.091437   -1.846265    0.007647
      2          6           0       -3.857588   -0.684688   -0.049647
      3          6           0       -1.702743   -1.760693    0.079226
      4          1           0       -3.577179   -2.818995    0.007388
      5          6           0       -3.234307    0.561436   -0.044000
      6          1           0       -4.941758   -0.750101   -0.098275
      7          6           0       -1.842404    0.652851    0.008863
      8          1           0       -3.839046    1.463944   -0.091912
      9          6           0       -1.074411   -0.514113    0.079879
     10          1           0       -1.111303   -2.670874    0.146094
     11          6           0        0.433462   -0.422505    0.239641
     12          6           0       -1.192097    1.991775   -0.002609
     13          6           0        0.128503    2.072465   -0.125974
     14          1           0       -1.797046    2.893328    0.059986
     15          6           0        1.050440    0.879952   -0.311252
     16          1           0        0.600202    3.052177   -0.153075
     17          1           0        0.934762   -1.296505   -0.184372
     18          1           0        1.225188    0.751890   -1.382484
     19          6           0        2.414129    1.128900    0.364574
     20          1           0        2.883076    2.028407   -0.042312
     21          1           0        3.091717    0.285582    0.198167
     22          1           0        2.289170    1.265047    1.441898
     23          8           0        3.873034   -0.471168    0.018100
     24          8           0        4.942590   -1.442611   -0.253219
     25          1           0        5.527932   -1.248355    0.501759
 ---------------------------------------------------------------------
 Rotational constants (GHZ):           1.6142936           0.3703486           0.3046057
 Standard basis: 6-311+G(2df,2p) (5D, 7F)
 The combination of multiplicity 2 and    94 electrons is impossible.
 Error termination via Lnk1e in /shared/centos7/gaussian/g16/l301.exe at Tue Feb  5 10:05:33 2019.
 Job cpu time:       0 days  0 hours  2 minutes 22.7 seconds.
 Elapsed time:       0 days  0 hours  0 minutes 10.0 seconds.
 File lengths (MBytes):  RWF=    272 Int=      0 D2E=      0 Chk=     32 Scr=     32
