 Entering Gaussian System, Link 0=g16
 Input=rxn936.com
 Output=rxn936.log
 Initial command:
 /shared/centos7/gaussian/g16/l1.exe "/scratch/dinius.ab/QMscratch/Gau-16773.inp" -scrdir="/scratch/dinius.ab/QMscratch/"
 Entering Link 1 = /shared/centos7/gaussian/g16/l1.exe PID=     16774.
  
 Copyright (c) 1988,1990,1992,1993,1995,1998,2003,2009,2016,
            Gaussian, Inc.  All Rights Reserved.
  
 This is part of the Gaussian(R) 16 program.  It is based on
 the Gaussian(R) 09 system (copyright 2009, Gaussian, Inc.),
 the Gaussian(R) 03 system (copyright 2003, Gaussian, Inc.),
 the Gaussian(R) 98 system (copyright 1998, Gaussian, Inc.),
 the Gaussian(R) 94 system (copyright 1995, Gaussian, Inc.),
 the Gaussian 92(TM) system (copyright 1992, Gaussian, Inc.),
 the Gaussian 90(TM) system (copyright 1990, Gaussian, Inc.),
 the Gaussian 88(TM) system (copyright 1988, Gaussian, Inc.),
 the Gaussian 86(TM) system (copyright 1986, Carnegie Mellon
 University), and the Gaussian 82(TM) system (copyright 1983,
 Carnegie Mellon University). Gaussian is a federally registered
 trademark of Gaussian, Inc.
  
 This software contains proprietary and confidential information,
 including trade secrets, belonging to Gaussian, Inc.
  
 This software is provided under written license and may be
 used, copied, transmitted, or stored only in accord with that
 written license.
  
 The following legend is applicable only to US Government
 contracts under FAR:
  
                    RESTRICTED RIGHTS LEGEND
  
 Use, reproduction and disclosure by the US Government is
 subject to restrictions as set forth in subparagraphs (a)
 and (c) of the Commercial Computer Software - Restricted
 Rights clause in FAR 52.227-19.
  
 Gaussian, Inc.
 340 Quinnipiac St., Bldg. 40, Wallingford CT 06492
  
  
 ---------------------------------------------------------------
 Warning -- This program may not be used in any manner that
 competes with the business of Gaussian, Inc. or will provide
 assistance to any competitor of Gaussian, Inc.  The licensee
 of this program is prohibited from giving any competitor of
 Gaussian, Inc. access to this program.  By using this program,
 the user acknowledges that Gaussian, Inc. is engaged in the
 business of creating and licensing software in the field of
 computational chemistry and represents and warrants to the
 licensee that it is not a competitor of Gaussian, Inc. and that
 it will not use this program in any manner prohibited above.
 ---------------------------------------------------------------
  

 Cite this work as:
 Gaussian 16, Revision A.03,
 M. J. Frisch, G. W. Trucks, H. B. Schlegel, G. E. Scuseria, 
 M. A. Robb, J. R. Cheeseman, G. Scalmani, V. Barone, 
 G. A. Petersson, H. Nakatsuji, X. Li, M. Caricato, A. V. Marenich, 
 J. Bloino, B. G. Janesko, R. Gomperts, B. Mennucci, H. P. Hratchian, 
 J. V. Ortiz, A. F. Izmaylov, J. L. Sonnenberg, D. Williams-Young, 
 F. Ding, F. Lipparini, F. Egidi, J. Goings, B. Peng, A. Petrone, 
 T. Henderson, D. Ranasinghe, V. G. Zakrzewski, J. Gao, N. Rega, 
 G. Zheng, W. Liang, M. Hada, M. Ehara, K. Toyota, R. Fukuda, 
 J. Hasegawa, M. Ishida, T. Nakajima, Y. Honda, O. Kitao, H. Nakai, 
 T. Vreven, K. Throssell, J. A. Montgomery, Jr., J. E. Peralta, 
 F. Ogliaro, M. J. Bearpark, J. J. Heyd, E. N. Brothers, K. N. Kudin, 
 V. N. Staroverov, T. A. Keith, R. Kobayashi, J. Normand, 
 K. Raghavachari, A. P. Rendell, J. C. Burant, S. S. Iyengar, 
 J. Tomasi, M. Cossi, J. M. Millam, M. Klene, C. Adamo, R. Cammi, 
 J. W. Ochterski, R. L. Martin, K. Morokuma, O. Farkas, 
 J. B. Foresman, and D. J. Fox, Gaussian, Inc., Wallingford CT, 2016.
 
 ******************************************
 Gaussian 16:  EM64L-G16RevA.03 25-Dec-2016
                 9-Nov-2018 
 ******************************************
 ----------------------------------------------------------------------
 #m062x/6-311+g(2df,2p) Opt=(ModRedun,Loose,maxcycle=1000) Integral=NoX
 CTest Int(Grid=SG1) freq
 ----------------------------------------------------------------------
 1/6=1000,7=-1,18=120,19=15,26=2,38=1/1,3;
 2/9=110,12=2,17=6,18=5,40=1/2;
 3/5=4,6=6,7=214,11=2,25=1,30=1,47=8,71=1,74=-55,75=1/1,2,3;
 4//1;
 5/5=2,38=5/2;
 6/7=2,8=2,9=2,10=2,28=1/1;
 7//1,2,3,16;
 1/6=1000,7=-1,18=20,19=15,26=2/3(2);
 2/9=110/2;
 99//99;
 2/9=110/2;
 3/5=4,6=6,7=214,11=2,25=1,30=1,47=8,71=1,74=-55,75=1/1,2,3;
 4/5=5,16=3,69=1/1;
 5/5=2,38=5/2;
 7//1,2,3,16;
 1/6=1000,7=-1,18=20,19=15,26=2/3(-5);
 2/9=110/2;
 6/7=2,8=2,9=2,10=2,19=2,28=1/1;
 99/9=1/99;
 -----
 Title
 -----
 Symbolic Z-matrix:
 Charge =  0 Multiplicity = 2
 C                     7.63378  -2.11545   0.53641 
 C                     6.15989  -1.76281   0.41278 
 H                     7.8063   -2.71318   1.43439 
 H                     8.24797  -1.21423   0.61093 
 H                     7.97128  -2.68989  -0.33305 
 C                     5.19333  -2.7637    0.46536 
 C                     5.75891  -0.44076   0.24181 
 C                     3.83677  -2.44643   0.37388 
 H                     5.50156  -3.80015   0.58738 
 C                     4.40745  -0.11768   0.14985 
 H                     6.50136   0.35194   0.18403 
 C                     3.41747  -1.11151   0.22662 
 H                     4.16179   0.92935   0.02181 
 C                     2.90281  -3.47789   0.44179 
 C                     2.03497  -0.8229    0.17141 
 C                     1.54541  -3.19577   0.38097 
 H                     3.22898  -4.5099    0.54957 
 C                     1.10833  -1.87916   0.25503 
 H                     0.8272   -4.01037   0.44166 
 C                    -0.265    -1.62927   0.22133 
 C                     1.53289   0.48459   0.05019 
 C                     0.1614    0.7271    0.02088 
 H                     2.18481   1.34689  -0.01694 
 C                    -0.73918  -0.32755   0.10754 
 H                    -0.20609   1.74666  -0.06681 
 H                    -0.97475  -2.4506    0.29042 
 H                    -1.8091   -0.13534   0.08844 
 O                     8.27743  -2.94256  -1.36229 
 O                     8.12344  -2.11237  -2.56699 
 H                     7.2435   -2.41811  -2.85566 
 
 The following ModRedundant input section has been read:
 

 GradGradGradGradGradGradGradGradGradGradGradGradGradGradGradGradGradGrad
 Berny optimization.
 Initialization pass.
                           ----------------------------
                           !    Initial Parameters    !
                           ! (Angstroms and Degrees)  !
 --------------------------                            --------------------------
 ! Name  Definition              Value          Derivative Info.                !
 --------------------------------------------------------------------------------
 ! R1    R(1,2)                  1.5205         estimate D2E/DX2                !
 ! R2    R(1,3)                  1.0924         estimate D2E/DX2                !
 ! R3    R(1,4)                  1.0932         estimate D2E/DX2                !
 ! R4    R(1,5)                  1.0954         estimate D2E/DX2                !
 ! R5    R(2,6)                  1.3924         estimate D2E/DX2                !
 ! R6    R(2,7)                  1.3921         estimate D2E/DX2                !
 ! R7    R(5,28)                 1.1031         estimate D2E/DX2                !
 ! R8    R(6,8)                  1.3962         estimate D2E/DX2                !
 ! R9    R(6,9)                  1.0882         estimate D2E/DX2                !
 ! R10   R(7,10)                 1.3926         estimate D2E/DX2                !
 ! R11   R(7,11)                 1.0876         estimate D2E/DX2                !
 ! R12   R(8,12)                 1.407          estimate D2E/DX2                !
 ! R13   R(8,14)                 1.3931         estimate D2E/DX2                !
 ! R14   R(10,12)                1.4049         estimate D2E/DX2                !
 ! R15   R(10,13)                1.0831         estimate D2E/DX2                !
 ! R16   R(12,15)                1.4134         estimate D2E/DX2                !
 ! R17   R(14,16)                1.3877         estimate D2E/DX2                !
 ! R18   R(14,17)                1.0877         estimate D2E/DX2                !
 ! R19   R(15,18)                1.4076         estimate D2E/DX2                !
 ! R20   R(15,21)                1.4058         estimate D2E/DX2                !
 ! R21   R(16,18)                1.393          estimate D2E/DX2                !
 ! R22   R(16,19)                1.0877         estimate D2E/DX2                !
 ! R23   R(18,20)                1.3963         estimate D2E/DX2                !
 ! R24   R(20,24)                1.3901         estimate D2E/DX2                !
 ! R25   R(20,26)                1.0877         estimate D2E/DX2                !
 ! R26   R(21,22)                1.3931         estimate D2E/DX2                !
 ! R27   R(21,23)                1.0831         estimate D2E/DX2                !
 ! R28   R(22,24)                1.3895         estimate D2E/DX2                !
 ! R29   R(22,25)                1.0873         estimate D2E/DX2                !
 ! R30   R(24,27)                1.0872         estimate D2E/DX2                !
 ! R31   R(28,29)                1.4711         estimate D2E/DX2                !
 ! R32   R(29,30)                0.9752         estimate D2E/DX2                !
 ! A1    A(2,1,3)              110.2923         estimate D2E/DX2                !
 ! A2    A(2,1,4)              111.0365         estimate D2E/DX2                !
 ! A3    A(2,1,5)              110.8394         estimate D2E/DX2                !
 ! A4    A(3,1,4)              107.8377         estimate D2E/DX2                !
 ! A5    A(3,1,5)              108.4736         estimate D2E/DX2                !
 ! A6    A(4,1,5)              108.2608         estimate D2E/DX2                !
 ! A7    A(1,2,6)              120.2052         estimate D2E/DX2                !
 ! A8    A(1,2,7)              120.6276         estimate D2E/DX2                !
 ! A9    A(6,2,7)              119.1669         estimate D2E/DX2                !
 ! A10   A(1,5,28)             161.1225         estimate D2E/DX2                !
 ! A11   A(2,6,8)              120.5741         estimate D2E/DX2                !
 ! A12   A(2,6,9)              119.4894         estimate D2E/DX2                !
 ! A13   A(8,6,9)              119.9344         estimate D2E/DX2                !
 ! A14   A(2,7,10)             120.5297         estimate D2E/DX2                !
 ! A15   A(2,7,11)             120.1371         estimate D2E/DX2                !
 ! A16   A(10,7,11)            119.3324         estimate D2E/DX2                !
 ! A17   A(6,8,12)             120.7994         estimate D2E/DX2                !
 ! A18   A(6,8,14)             118.6817         estimate D2E/DX2                !
 ! A19   A(12,8,14)            120.517          estimate D2E/DX2                !
 ! A20   A(7,10,12)            121.0737         estimate D2E/DX2                !
 ! A21   A(7,10,13)            116.8858         estimate D2E/DX2                !
 ! A22   A(12,10,13)           122.04           estimate D2E/DX2                !
 ! A23   A(8,12,10)            117.8341         estimate D2E/DX2                !
 ! A24   A(8,12,15)            119.2973         estimate D2E/DX2                !
 ! A25   A(10,12,15)           122.8672         estimate D2E/DX2                !
 ! A26   A(8,14,16)            120.2049         estimate D2E/DX2                !
 ! A27   A(8,14,17)            120.4169         estimate D2E/DX2                !
 ! A28   A(16,14,17)           119.3769         estimate D2E/DX2                !
 ! A29   A(12,15,18)           119.234          estimate D2E/DX2                !
 ! A30   A(12,15,21)           122.8626         estimate D2E/DX2                !
 ! A31   A(18,15,21)           117.8996         estimate D2E/DX2                !
 ! A32   A(14,16,18)           120.2006         estimate D2E/DX2                !
 ! A33   A(14,16,19)           119.4175         estimate D2E/DX2                !
 ! A34   A(18,16,19)           120.3796         estimate D2E/DX2                !
 ! A35   A(15,18,16)           120.5355         estimate D2E/DX2                !
 ! A36   A(15,18,20)           120.781          estimate D2E/DX2                !
 ! A37   A(16,18,20)           118.6825         estimate D2E/DX2                !
 ! A38   A(18,20,24)           120.3369         estimate D2E/DX2                !
 ! A39   A(18,20,26)           120.3394         estimate D2E/DX2                !
 ! A40   A(24,20,26)           119.3226         estimate D2E/DX2                !
 ! A41   A(15,21,22)           121.0198         estimate D2E/DX2                !
 ! A42   A(15,21,23)           122.0626         estimate D2E/DX2                !
 ! A43   A(22,21,23)           116.9161         estimate D2E/DX2                !
 ! A44   A(21,22,24)           120.3068         estimate D2E/DX2                !
 ! A45   A(21,22,25)           119.8464         estimate D2E/DX2                !
 ! A46   A(24,22,25)           119.8464         estimate D2E/DX2                !
 ! A47   A(20,24,22)           119.6548         estimate D2E/DX2                !
 ! A48   A(20,24,27)           120.178          estimate D2E/DX2                !
 ! A49   A(22,24,27)           120.167          estimate D2E/DX2                !
 ! A50   A(5,28,29)            127.2816         estimate D2E/DX2                !
 ! A51   A(28,29,30)            99.2023         estimate D2E/DX2                !
 ! D1    D(3,1,2,6)            -52.8781         estimate D2E/DX2                !
 ! D2    D(3,1,2,7)            127.3277         estimate D2E/DX2                !
 ! D3    D(4,1,2,6)           -172.3582         estimate D2E/DX2                !
 ! D4    D(4,1,2,7)              7.8476         estimate D2E/DX2                !
 ! D5    D(5,1,2,6)             67.2697         estimate D2E/DX2                !
 ! D6    D(5,1,2,7)           -112.5245         estimate D2E/DX2                !
 ! D7    D(2,1,5,28)            72.6168         estimate D2E/DX2                !
 ! D8    D(3,1,5,28)          -166.1571         estimate D2E/DX2                !
 ! D9    D(4,1,5,28)           -49.3925         estimate D2E/DX2                !
 ! D10   D(1,2,6,8)            178.982          estimate D2E/DX2                !
 ! D11   D(1,2,6,9)             -0.496          estimate D2E/DX2                !
 ! D12   D(7,2,6,8)             -1.2208         estimate D2E/DX2                !
 ! D13   D(7,2,6,9)            179.3011         estimate D2E/DX2                !
 ! D14   D(1,2,7,10)          -178.9871         estimate D2E/DX2                !
 ! D15   D(1,2,7,11)             0.6872         estimate D2E/DX2                !
 ! D16   D(6,2,7,10)             1.2166         estimate D2E/DX2                !
 ! D17   D(6,2,7,11)          -179.1091         estimate D2E/DX2                !
 ! D18   D(1,5,28,29)          -12.4873         estimate D2E/DX2                !
 ! D19   D(2,6,8,12)             0.0129         estimate D2E/DX2                !
 ! D20   D(2,6,8,14)          -179.4905         estimate D2E/DX2                !
 ! D21   D(9,6,8,12)           179.4886         estimate D2E/DX2                !
 ! D22   D(9,6,8,14)            -0.0147         estimate D2E/DX2                !
 ! D23   D(2,7,10,12)           -0.0027         estimate D2E/DX2                !
 ! D24   D(2,7,10,13)          179.736          estimate D2E/DX2                !
 ! D25   D(11,7,10,12)        -179.6796         estimate D2E/DX2                !
 ! D26   D(11,7,10,13)           0.059          estimate D2E/DX2                !
 ! D27   D(6,8,12,10)            1.1765         estimate D2E/DX2                !
 ! D28   D(6,8,12,15)         -178.3968         estimate D2E/DX2                !
 ! D29   D(14,8,12,10)        -179.3293         estimate D2E/DX2                !
 ! D30   D(14,8,12,15)           1.0974         estimate D2E/DX2                !
 ! D31   D(6,8,14,16)          178.7175         estimate D2E/DX2                !
 ! D32   D(6,8,14,17)           -0.8681         estimate D2E/DX2                !
 ! D33   D(12,8,14,16)          -0.7873         estimate D2E/DX2                !
 ! D34   D(12,8,14,17)         179.6271         estimate D2E/DX2                !
 ! D35   D(7,10,12,8)           -1.1835         estimate D2E/DX2                !
 ! D36   D(7,10,12,15)         178.3734         estimate D2E/DX2                !
 ! D37   D(13,10,12,8)         179.0915         estimate D2E/DX2                !
 ! D38   D(13,10,12,15)         -1.3516         estimate D2E/DX2                !
 ! D39   D(8,12,15,18)          -0.47           estimate D2E/DX2                !
 ! D40   D(8,12,15,21)         178.8097         estimate D2E/DX2                !
 ! D41   D(10,12,15,18)        179.9793         estimate D2E/DX2                !
 ! D42   D(10,12,15,21)         -0.741          estimate D2E/DX2                !
 ! D43   D(8,14,16,18)          -0.162          estimate D2E/DX2                !
 ! D44   D(8,14,16,19)        -179.6056         estimate D2E/DX2                !
 ! D45   D(17,14,16,18)        179.4279         estimate D2E/DX2                !
 ! D46   D(17,14,16,19)         -0.0157         estimate D2E/DX2                !
 ! D47   D(12,15,18,16)         -0.4653         estimate D2E/DX2                !
 ! D48   D(12,15,18,20)        179.1638         estimate D2E/DX2                !
 ! D49   D(21,15,18,16)       -179.7807         estimate D2E/DX2                !
 ! D50   D(21,15,18,20)         -0.1516         estimate D2E/DX2                !
 ! D51   D(12,15,21,22)       -178.9588         estimate D2E/DX2                !
 ! D52   D(12,15,21,23)          0.5708         estimate D2E/DX2                !
 ! D53   D(18,15,21,22)          0.33           estimate D2E/DX2                !
 ! D54   D(18,15,21,23)        179.8596         estimate D2E/DX2                !
 ! D55   D(14,16,18,15)          0.7898         estimate D2E/DX2                !
 ! D56   D(14,16,18,20)       -178.847          estimate D2E/DX2                !
 ! D57   D(19,16,18,15)       -179.772          estimate D2E/DX2                !
 ! D58   D(19,16,18,20)          0.5912         estimate D2E/DX2                !
 ! D59   D(15,18,20,24)         -0.1611         estimate D2E/DX2                !
 ! D60   D(15,18,20,26)       -179.7584         estimate D2E/DX2                !
 ! D61   D(16,18,20,24)        179.4748         estimate D2E/DX2                !
 ! D62   D(16,18,20,26)         -0.1225         estimate D2E/DX2                !
 ! D63   D(18,20,24,22)          0.3            estimate D2E/DX2                !
 ! D64   D(18,20,24,27)       -179.578          estimate D2E/DX2                !
 ! D65   D(26,20,24,22)        179.9014         estimate D2E/DX2                !
 ! D66   D(26,20,24,27)          0.0234         estimate D2E/DX2                !
 ! D67   D(15,21,22,24)         -0.1973         estimate D2E/DX2                !
 ! D68   D(15,21,22,25)        179.5942         estimate D2E/DX2                !
 ! D69   D(23,21,22,24)       -179.7502         estimate D2E/DX2                !
 ! D70   D(23,21,22,25)          0.0412         estimate D2E/DX2                !
 ! D71   D(21,22,24,20)         -0.1227         estimate D2E/DX2                !
 ! D72   D(21,22,24,27)        179.7553         estimate D2E/DX2                !
 ! D73   D(25,22,24,20)       -179.9142         estimate D2E/DX2                !
 ! D74   D(25,22,24,27)         -0.0361         estimate D2E/DX2                !
 ! D75   D(5,28,29,30)         -90.0511         estimate D2E/DX2                !
 --------------------------------------------------------------------------------
 Trust Radius=3.00D-01 FncErr=1.00D-05 GrdErr=1.00D-04 EigMax=2.50D+02 EigMin=1.00D-04
 Number of steps in this run=    180 maximum allowed number of steps=    180.
 GradGradGradGradGradGradGradGradGradGradGradGradGradGradGradGradGradGrad

                          Input orientation:                          
 ---------------------------------------------------------------------
 Center     Atomic      Atomic             Coordinates (Angstroms)
 Number     Number       Type             X           Y           Z
 ---------------------------------------------------------------------
      1          6           0        7.633780   -2.115450    0.536410
      2          6           0        6.159890   -1.762810    0.412780
      3          1           0        7.806300   -2.713180    1.434390
      4          1           0        8.247970   -1.214230    0.610930
      5          1           0        7.971280   -2.689890   -0.333050
      6          6           0        5.193330   -2.763700    0.465360
      7          6           0        5.758910   -0.440760    0.241810
      8          6           0        3.836770   -2.446430    0.373880
      9          1           0        5.501560   -3.800150    0.587380
     10          6           0        4.407450   -0.117680    0.149850
     11          1           0        6.501360    0.351940    0.184030
     12          6           0        3.417470   -1.111510    0.226620
     13          1           0        4.161790    0.929350    0.021810
     14          6           0        2.902810   -3.477890    0.441790
     15          6           0        2.034970   -0.822900    0.171410
     16          6           0        1.545410   -3.195770    0.380970
     17          1           0        3.228980   -4.509900    0.549570
     18          6           0        1.108330   -1.879160    0.255030
     19          1           0        0.827200   -4.010370    0.441660
     20          6           0       -0.265000   -1.629270    0.221330
     21          6           0        1.532890    0.484590    0.050190
     22          6           0        0.161400    0.727100    0.020880
     23          1           0        2.184810    1.346890   -0.016940
     24          6           0       -0.739180   -0.327550    0.107540
     25          1           0       -0.206090    1.746660   -0.066810
     26          1           0       -0.974750   -2.450600    0.290420
     27          1           0       -1.809100   -0.135340    0.088440
     28          8           0        8.277430   -2.942560   -1.362290
     29          8           0        8.123440   -2.112370   -2.566990
     30          1           0        7.243500   -2.418110   -2.855660
 ---------------------------------------------------------------------
                    Distance matrix (angstroms):
                    1          2          3          4          5
     1  C    0.000000
     2  C    1.520523   0.000000
     3  H    1.092434   2.158137   0.000000
     4  H    1.093151   2.168013   1.766355   0.000000
     5  H    1.095376   2.167227   1.775276   1.773479   0.000000
     6  C    2.526078   1.392402   2.787326   3.428246   2.891351
     7  C    2.531109   1.392060   3.282978   2.632475   3.206810
     8  C    3.814872   2.421928   4.117403   4.586196   4.201571
     9  H    2.717936   2.148171   2.685285   3.772308   2.859963
    10  C    3.814409   2.417981   4.465293   4.020524   4.421577
    11  H    2.737619   2.154320   3.558262   2.384487   3.417714
    12  C    4.345243   2.824839   4.825545   4.846852   4.851979
    13  H    4.646540   3.375350   5.342833   4.651759   5.266596
    14  C    4.924152   3.681156   5.061052   5.807194   5.187553
    15  C    5.757654   4.237529   6.202945   6.240808   6.243389
    16  C    6.185427   4.831957   6.367207   6.993118   6.485179
    17  H    5.013564   4.019384   4.996295   6.004620   5.155663
    18  C    6.535787   5.055362   6.851955   7.179363   6.935647
    19  H    7.066062   5.787050   7.167709   7.931890   7.306280
    20  C    7.919998   6.429129   8.233605   8.531981   8.322774
    21  C    6.649622   5.156686   7.176170   6.949296   7.188676
    22  C    8.011387   6.506544   8.501649   8.337238   8.532017
    23  H    6.479604   5.065190   7.084608   6.611767   7.062489
    24  C    8.572454   7.053390   8.970897   9.044803   9.035866
    25  H    8.760327   7.285059   9.292049   8.983169   9.307161
    26  H    8.618563   7.168760   8.859145   9.310741   8.970921
    27  H    9.658649   8.139942  10.045534  10.128260  10.117273
    28  O    2.168746   3.004440   2.845347   2.623278   1.103134
    29  O    3.141794   3.585631   4.058644   3.304745   2.312395
    30  H    3.427836   3.505186   4.336858   3.804673   2.639524
                    6          7          8          9         10
     6  C    0.000000
     7  C    2.401230   0.000000
     8  C    1.396168   2.781147   0.000000
     9  H    1.088174   3.386908   2.156308   0.000000
    10  C    2.778232   1.392581   2.408099   3.866406   0.000000
    11  H    3.390767   1.087632   3.868715   4.289772   2.146199
    12  C    2.437295   2.435668   1.406950   3.420872   1.404867
    13  H    3.859978   2.115749   3.409616   4.948032   1.083058
    14  C    2.399397   4.173902   1.393127   2.622699   3.693262
    15  C    3.718649   3.744158   2.433789   4.588496   2.475169
    16  C    3.674388   5.036172   2.410786   4.007369   4.209433
    17  H    2.629634   4.801371   2.158283   2.381133   4.565103
    18  C    4.184958   4.867963   2.789320   4.806363   3.741399
    19  H    4.540687   6.091290   3.392346   4.681353   5.296827
    20  C    5.580309   6.140071   4.185157   6.172514   4.911395
    21  C    4.911474   4.330385   3.742127   5.864973   2.938666
    22  C    6.140323   5.722309   4.868701   7.023833   4.331192
    23  H    5.116713   4.004602   4.155838   6.152890   2.667004
    24  C    6.423203   6.500463   5.049743   7.157935   5.151081
    25  H    7.055515   6.360918   5.841312   7.985758   4.980708
    26  H    6.178499   7.027375   4.812246   6.622089   5.867738
    27  H    7.488950   7.575723   6.107247   8.193017   6.216878
    28  O    3.589424   3.895521   4.793735   3.498875   5.024267
    29  O    4.266723   4.034184   5.209208   4.435415   5.016831
    30  H    3.918138   3.963362   4.694309   4.098648   4.729508
                   11         12         13         14         15
    11  H    0.000000
    12  C    3.413778   0.000000
    13  H    2.415224   2.181987   0.000000
    14  C    5.261521   2.431240   4.602736   0.000000
    15  C    4.618338   1.413383   2.759733   2.806283   0.000000
    16  C    6.098071   2.805810   4.898066   1.387741   2.431892
    17  H    5.871931   3.418900   5.543835   1.087680   3.893923
    18  C    5.836747   2.433561   4.155206   2.410596   1.407601
    19  H    7.161858   3.893473   5.974663   2.142823   3.419314
    20  C    7.050547   3.718694   5.116915   3.674373   2.437742
    21  C    4.972042   2.475945   2.666408   4.210853   1.405812
    22  C    6.353145   3.744971   4.005499   5.037304   2.436273
    23  H    4.434289   2.760888   2.020963   4.899435   2.183098
    24  C    7.272756   4.231609   5.060302   4.827055   2.818751
    25  H    6.855512   4.624438   4.444573   6.100808   3.417856
    26  H    7.984846   4.592258   6.154694   4.014188   3.423738
    27  H    8.325282   5.318744   6.065437   5.787883   3.905957
    28  O    4.049600   5.431076   5.817724   5.694543   6.768567
    29  O    4.033866   5.563464   5.625710   6.178380   6.799341
    30  H    4.178955   5.083912   5.383517   5.553188   6.231904
                   16         17         18         19         20
    16  C    0.000000
    17  H    2.142375   0.000000
    18  C    1.392969   3.391858   0.000000
    19  H    1.087696   2.455549   2.157758   0.000000
    20  C    2.399373   4.540228   1.396287   2.628894   0.000000
    21  C    3.695216   5.298210   2.410296   4.566827   2.780306
    22  C    4.175411   6.092268   2.782821   4.802496   2.403014
    23  H    4.604663   5.976053   3.411770   5.545598   3.862107
    24  C    3.677064   5.782191   2.417135   4.016011   1.390061
    25  H    5.262687   7.164089   3.870123   5.871084   3.388716
    26  H    2.629579   4.688200   2.160328   2.388049   1.087705
    27  H    4.550224   6.688174   3.402948   4.700074   2.152610
    28  O    6.958675   5.621264   7.425802   7.739534   8.786677
    29  O    7.289355   6.278283   7.565048   8.117235   8.852911
    30  H    6.599148   5.664587   6.899795   7.387592   8.152773
                   21         22         23         24         25
    21  C    0.000000
    22  C    1.393074   0.000000
    23  H    1.083082   2.116544   0.000000
    24  C    2.413537   1.389547   3.371789   0.000000
    25  H    2.151874   1.087309   2.424604   2.148704   0.000000
    26  H    3.867985   3.385449   4.949568   2.143894   4.281991
    27  H    3.399217   2.152031   4.261388   1.087216   2.477028
    28  O    7.696056   9.013851   7.571616   9.502522   9.779426
    29  O    7.551767   8.840461   7.330523   9.427870   9.514414
    30  H    7.034252   8.265771   6.915483   8.767792   8.978830
                   26         27         28         29         30
    26  H    0.000000
    27  H    2.469284   0.000000
    28  O    9.411499  10.569919   0.000000
    29  O    9.542340  10.469733   1.471132   0.000000
    30  H    8.799915   9.789195   1.890559   0.975244   0.000000
 Stoichiometry    C15H13O2(2)
 Framework group  C1[X(C15H13O2)]
 Deg. of freedom    84
 Full point group                 C1      NOp   1
 Largest Abelian subgroup         C1      NOp   1
 Largest concise Abelian subgroup C1      NOp   1
                         Standard orientation:                         
 ---------------------------------------------------------------------
 Center     Atomic      Atomic             Coordinates (Angstroms)
 Number     Number       Type             X           Y           Z
 ---------------------------------------------------------------------
      1          6           0        3.771381   -0.063498   -1.126374
      2          6           0        2.287512   -0.161476   -0.809318
      3          1           0        3.934286    0.606180   -1.973962
      4          1           0        4.181974   -1.041985   -1.388971
      5          1           0        4.328908    0.323110   -0.266405
      6          6           0        1.536908    0.993503   -0.605846
      7          6           0        1.662994   -1.401957   -0.714374
      8          6           0        0.169572    0.913359   -0.335189
      9          1           0        2.022185    1.965525   -0.667514
     10          6           0        0.299543   -1.488738   -0.444646
     11          1           0        2.237249   -2.314703   -0.856045
     12          6           0       -0.478460   -0.333318   -0.261975
     13          1           0       -0.126206   -2.482993   -0.388001
     14          6           0       -0.545468    2.094360   -0.148758
     15          6           0       -1.870300   -0.376155   -0.019909
     16          6           0       -1.910901    2.052655    0.095537
     17          1           0       -0.041706    3.056999   -0.199719
     18          6           0       -2.575512    0.829786    0.152494
     19          1           0       -2.457727    2.982830    0.232789
     20          6           0       -3.953792    0.825894    0.375976
     21          6           0       -2.596908   -1.577953    0.043579
     22          6           0       -3.972554   -1.574400    0.263220
     23          1           0       -2.122919   -2.543704   -0.081826
     24          6           0       -4.653176   -0.374266    0.428370
     25          1           0       -4.516739   -2.514922    0.302233
     26          1           0       -4.492222    1.762226    0.504339
     27          1           0       -5.727438   -0.373952    0.595705
     28          8           0        4.814756    0.380575    0.722308
     29          8           0        4.665925   -0.559217    1.844303
     30          1           0        3.909868   -0.142253    2.297758
 ---------------------------------------------------------------------
 Rotational constants (GHZ):           1.1619974           0.2312043           0.2121975
 Standard basis: 6-311+G(2df,2p) (5D, 7F)
 There are   780 symmetry adapted cartesian basis functions of A   symmetry.
 There are   695 symmetry adapted basis functions of A   symmetry.
   695 basis functions,  1027 primitive gaussians,   780 cartesian basis functions
    60 alpha electrons       59 beta electrons
       nuclear repulsion energy      1086.1431500553 Hartrees.
 NAtoms=   30 NActive=   30 NUniq=   30 SFac= 1.00D+00 NAtFMM=   60 NAOKFM=F Big=F
 Integral buffers will be    131072 words long.
 Raffenetti 2 integral format.
 Two-electron integral symmetry is turned on.
 One-electron integrals computed using PRISM.
 NBasis=   695 RedAO= T EigKep=  1.59D-06  NBF=   695
 NBsUse=   687 1.00D-06 EigRej=  9.17D-07 NBFU=   687
 ExpMin= 4.38D-02 ExpMax= 8.59D+03 ExpMxC= 1.30D+03 IAcc=2 IRadAn=         4 AccDes= 0.00D+00
 Harris functional with IExCor= 1009 and IRadAn=       4 diagonalized for initial guess.
 HarFok:  IExCor= 1009 AccDes= 0.00D+00 IRadAn=         4 IDoV= 1 UseB2=F ITyADJ=14
 ICtDFT=  3500011 ScaDFX=  1.000000  1.000000  1.000000  1.000000
 FoFCou: FMM=F IPFlag=           8 FMFlag=      100000 FMFlg1=           0
         NFxFlg=           0 DoJE=T BraDBF=F KetDBF=T FulRan=T
         wScrn=  0.000000 ICntrl=       500 IOpCl=  0 I1Cent=   200000004 NGrid=           0
         NMat0=    1 NMatS0=      1 NMatT0=    0 NMatD0=    1 NMtDS0=    0 NMtDT0=    0
 Petite list used in FoFCou.
 Initial guess <Sx>= 0.0000 <Sy>= 0.0000 <Sz>= 0.5000 <S**2>= 0.7500 S= 0.5000
 Requested convergence on RMS density matrix=1.00D-08 within 128 cycles.
 Requested convergence on MAX density matrix=1.00D-06.
 Requested convergence on             energy=1.00D-06.
 No special actions if energy rises.
 SCF Done:  E(UM062X) =  -729.604214366     A.U. after   20 cycles
            NFock= 20  Conv=0.77D-08     -V/T= 2.0035
 <Sx>= 0.0000 <Sy>= 0.0000 <Sz>= 0.5000 <S**2>= 0.7609 S= 0.5054
 <L.S>= 0.000000000000E+00
 Annihilation of the first spin contaminant:
 S**2 before annihilation     0.7609,   after     0.7501

 **********************************************************************

            Population analysis using the SCF density.

 **********************************************************************

 Orbital symmetries:
 Alpha Orbitals:
       Occupied  (A) (A) (A) (A) (A) (A) (A) (A) (A) (A) (A) (A)
                 (A) (A) (A) (A) (A) (A) (A) (A) (A) (A) (A) (A)
                 (A) (A) (A) (A) (A) (A) (A) (A) (A) (A) (A) (A)
                 (A) (A) (A) (A) (A) (A) (A) (A) (A) (A) (A) (A)
                 (A) (A) (A) (A) (A) (A) (A) (A) (A) (A) (A) (A)
       Virtual   (A) (A) (A) (A) (A) (A) (A) (A) (A) (A) (A) (A)
                 (A) (A) (A) (A) (A) (A) (A) (A) (A) (A) (A) (A)
                 (A) (A) (A) (A) (A) (A) (A) (A) (A) (A) (A) (A)
                 (A) (A) (A) (A) (A) (A) (A) (A) (A) (A) (A) (A)
                 (A) (A) (A) (A) (A) (A) (A) (A) (A) (A) (A) (A)
                 (A) (A) (A) (A) (A) (A) (A) (A) (A) (A) (A) (A)
                 (A) (A) (A) (A) (A) (A) (A) (A) (A) (A) (A) (A)
                 (A) (A) (A) (A) (A) (A) (A) (A) (A) (A) (A) (A)
                 (A) (A) (A) (A) (A) (A) (A) (A) (A) (A) (A) (A)
                 (A) (A) (A) (A) (A) (A) (A) (A) (A) (A) (A) (A)
                 (A) (A) (A) (A) (A) (A) (A) (A) (A) (A) (A) (A)
                 (A) (A) (A) (A) (A) (A) (A) (A) (A) (A) (A) (A)
                 (A) (A) (A) (A) (A) (A) (A) (A) (A) (A) (A) (A)
                 (A) (A) (A) (A) (A) (A) (A) (A) (A) (A) (A) (A)
                 (A) (A) (A) (A) (A) (A) (A) (A) (A) (A) (A) (A)
                 (A) (A) (A) (A) (A) (A) (A) (A) (A) (A) (A) (A)
                 (A) (A) (A) (A) (A) (A) (A) (A) (A) (A) (A) (A)
                 (A) (A) (A) (A) (A) (A) (A) (A) (A) (A) (A) (A)
                 (A) (A) (A) (A) (A) (A) (A) (A) (A) (A) (A) (A)
                 (A) (A) (A) (A) (A) (A) (A) (A) (A) (A) (A) (A)
                 (A) (A) (A) (A) (A) (A) (A) (A) (A) (A) (A) (A)
                 (A) (A) (A) (A) (A) (A) (A) (A) (A) (A) (A) (A)
                 (A) (A) (A) (A) (A) (A) (A) (A) (A) (A) (A) (A)
                 (A) (A) (A) (A) (A) (A) (A) (A) (A) (A) (A) (A)
                 (A) (A) (A) (A) (A) (A) (A) (A) (A) (A) (A) (A)
                 (A) (A) (A) (A) (A) (A) (A) (A) (A) (A) (A) (A)
                 (A) (A) (A) (A) (A) (A) (A) (A) (A) (A) (A) (A)
                 (A) (A) (A) (A) (A) (A) (A) (A) (A) (A) (A) (A)
                 (A) (A) (A) (A) (A) (A) (A) (A) (A) (A) (A) (A)
                 (A) (A) (A) (A) (A) (A) (A) (A) (A) (A) (A) (A)
                 (A) (A) (A) (A) (A) (A) (A) (A) (A) (A) (A) (A)
                 (A) (A) (A) (A) (A) (A) (A) (A) (A) (A) (A) (A)
                 (A) (A) (A) (A) (A) (A) (A) (A) (A) (A) (A) (A)
                 (A) (A) (A) (A) (A) (A) (A) (A) (A) (A) (A) (A)
                 (A) (A) (A) (A) (A) (A) (A) (A) (A) (A) (A) (A)
                 (A) (A) (A) (A) (A) (A) (A) (A) (A) (A) (A) (A)
                 (A) (A) (A) (A) (A) (A) (A) (A) (A) (A) (A) (A)
                 (A) (A) (A) (A) (A) (A) (A) (A) (A) (A) (A) (A)
                 (A) (A) (A) (A) (A) (A) (A) (A) (A) (A) (A) (A)
                 (A) (A) (A) (A) (A) (A) (A) (A) (A) (A) (A) (A)
                 (A) (A) (A) (A) (A) (A) (A) (A) (A) (A) (A) (A)
                 (A) (A) (A) (A) (A) (A) (A) (A) (A) (A) (A) (A)
                 (A) (A) (A) (A) (A) (A) (A) (A) (A) (A) (A) (A)
                 (A) (A) (A) (A) (A) (A) (A) (A) (A) (A) (A) (A)
                 (A) (A) (A) (A) (A) (A) (A) (A) (A) (A) (A) (A)
                 (A) (A) (A) (A) (A) (A) (A) (A) (A) (A) (A) (A)
                 (A) (A) (A) (A) (A) (A) (A) (A) (A) (A) (A) (A)
                 (A) (A) (A) (A) (A) (A) (A) (A) (A) (A) (A) (A)
                 (A) (A) (A) (A) (A) (A) (A) (A) (A) (A) (A) (A)
                 (A) (A) (A) (A) (A) (A) (A) (A) (A) (A) (A) (A)
                 (A) (A) (A) (A) (A) (A) (A) (A) (A) (A) (A) (A)
                 (A) (A) (A) (A) (A) (A) (A) (A) (A) (A) (A) (A)
                 (A) (A) (A)
 Beta  Orbitals:
       Occupied  (A) (A) (A) (A) (A) (A) (A) (A) (A) (A) (A) (A)
                 (A) (A) (A) (A) (A) (A) (A) (A) (A) (A) (A) (A)
                 (A) (A) (A) (A) (A) (A) (A) (A) (A) (A) (A) (A)
                 (A) (A) (A) (A) (A) (A) (A) (A) (A) (A) (A) (A)
                 (A) (A) (A) (A) (A) (A) (A) (A) (A) (A) (A)
       Virtual   (A) (A) (A) (A) (A) (A) (A) (A) (A) (A) (A) (A)
                 (A) (A) (A) (A) (A) (A) (A) (A) (A) (A) (A) (A)
                 (A) (A) (A) (A) (A) (A) (A) (A) (A) (A) (A) (A)
                 (A) (A) (A) (A) (A) (A) (A) (A) (A) (A) (A) (A)
                 (A) (A) (A) (A) (A) (A) (A) (A) (A) (A) (A) (A)
                 (A) (A) (A) (A) (A) (A) (A) (A) (A) (A) (A) (A)
                 (A) (A) (A) (A) (A) (A) (A) (A) (A) (A) (A) (A)
                 (A) (A) (A) (A) (A) (A) (A) (A) (A) (A) (A) (A)
                 (A) (A) (A) (A) (A) (A) (A) (A) (A) (A) (A) (A)
                 (A) (A) (A) (A) (A) (A) (A) (A) (A) (A) (A) (A)
                 (A) (A) (A) (A) (A) (A) (A) (A) (A) (A) (A) (A)
                 (A) (A) (A) (A) (A) (A) (A) (A) (A) (A) (A) (A)
                 (A) (A) (A) (A) (A) (A) (A) (A) (A) (A) (A) (A)
                 (A) (A) (A) (A) (A) (A) (A) (A) (A) (A) (A) (A)
                 (A) (A) (A) (A) (A) (A) (A) (A) (A) (A) (A) (A)
                 (A) (A) (A) (A) (A) (A) (A) (A) (A) (A) (A) (A)
                 (A) (A) (A) (A) (A) (A) (A) (A) (A) (A) (A) (A)
                 (A) (A) (A) (A) (A) (A) (A) (A) (A) (A) (A) (A)
                 (A) (A) (A) (A) (A) (A) (A) (A) (A) (A) (A) (A)
                 (A) (A) (A) (A) (A) (A) (A) (A) (A) (A) (A) (A)
                 (A) (A) (A) (A) (A) (A) (A) (A) (A) (A) (A) (A)
                 (A) (A) (A) (A) (A) (A) (A) (A) (A) (A) (A) (A)
                 (A) (A) (A) (A) (A) (A) (A) (A) (A) (A) (A) (A)
                 (A) (A) (A) (A) (A) (A) (A) (A) (A) (A) (A) (A)
                 (A) (A) (A) (A) (A) (A) (A) (A) (A) (A) (A) (A)
                 (A) (A) (A) (A) (A) (A) (A) (A) (A) (A) (A) (A)
                 (A) (A) (A) (A) (A) (A) (A) (A) (A) (A) (A) (A)
                 (A) (A) (A) (A) (A) (A) (A) (A) (A) (A) (A) (A)
                 (A) (A) (A) (A) (A) (A) (A) (A) (A) (A) (A) (A)
                 (A) (A) (A) (A) (A) (A) (A) (A) (A) (A) (A) (A)
                 (A) (A) (A) (A) (A) (A) (A) (A) (A) (A) (A) (A)
                 (A) (A) (A) (A) (A) (A) (A) (A) (A) (A) (A) (A)
                 (A) (A) (A) (A) (A) (A) (A) (A) (A) (A) (A) (A)
                 (A) (A) (A) (A) (A) (A) (A) (A) (A) (A) (A) (A)
                 (A) (A) (A) (A) (A) (A) (A) (A) (A) (A) (A) (A)
                 (A) (A) (A) (A) (A) (A) (A) (A) (A) (A) (A) (A)
                 (A) (A) (A) (A) (A) (A) (A) (A) (A) (A) (A) (A)
                 (A) (A) (A) (A) (A) (A) (A) (A) (A) (A) (A) (A)
                 (A) (A) (A) (A) (A) (A) (A) (A) (A) (A) (A) (A)
                 (A) (A) (A) (A) (A) (A) (A) (A) (A) (A) (A) (A)
                 (A) (A) (A) (A) (A) (A) (A) (A) (A) (A) (A) (A)
                 (A) (A) (A) (A) (A) (A) (A) (A) (A) (A) (A) (A)
                 (A) (A) (A) (A) (A) (A) (A) (A) (A) (A) (A) (A)
                 (A) (A) (A) (A) (A) (A) (A) (A) (A) (A) (A) (A)
                 (A) (A) (A) (A) (A) (A) (A) (A) (A) (A) (A) (A)
                 (A) (A) (A) (A) (A) (A) (A) (A) (A) (A) (A) (A)
                 (A) (A) (A) (A) (A) (A) (A) (A) (A) (A) (A) (A)
                 (A) (A) (A) (A) (A) (A) (A) (A) (A) (A) (A) (A)
                 (A) (A) (A) (A) (A) (A) (A) (A) (A) (A) (A) (A)
                 (A) (A) (A) (A) (A) (A) (A) (A) (A) (A) (A) (A)
                 (A) (A) (A) (A) (A) (A) (A) (A) (A) (A) (A) (A)
                 (A) (A) (A) (A) (A) (A) (A) (A) (A) (A) (A) (A)
                 (A) (A) (A) (A)
 The electronic state is 2-A.
 Alpha  occ. eigenvalues --  -19.70679 -19.69855 -10.56132 -10.55914 -10.55835
 Alpha  occ. eigenvalues --  -10.55488 -10.55353 -10.55311 -10.55164 -10.55105
 Alpha  occ. eigenvalues --  -10.55092 -10.55033 -10.55004 -10.54969 -10.54950
 Alpha  occ. eigenvalues --  -10.54843 -10.54584  -1.24802  -1.03849  -1.00781
 Alpha  occ. eigenvalues --   -0.96769  -0.92416  -0.89604  -0.86888  -0.84757
 Alpha  occ. eigenvalues --   -0.81691  -0.79270  -0.72475  -0.72286  -0.69783
 Alpha  occ. eigenvalues --   -0.67489  -0.64067  -0.61607  -0.60291  -0.58405
 Alpha  occ. eigenvalues --   -0.57985  -0.55897  -0.54714  -0.52760  -0.51851
 Alpha  occ. eigenvalues --   -0.50801  -0.50528  -0.49490  -0.48912  -0.47925
 Alpha  occ. eigenvalues --   -0.46636  -0.46233  -0.44981  -0.43266  -0.42747
 Alpha  occ. eigenvalues --   -0.42136  -0.40286  -0.39358  -0.39228  -0.39002
 Alpha  occ. eigenvalues --   -0.36360  -0.33373  -0.32234  -0.27140  -0.26709
 Alpha virt. eigenvalues --   -0.02981  -0.02316   0.00733   0.01349   0.01422
 Alpha virt. eigenvalues --    0.01634   0.02520   0.02999   0.03111   0.03741
 Alpha virt. eigenvalues --    0.04682   0.04734   0.05249   0.05749   0.06656
 Alpha virt. eigenvalues --    0.06954   0.07206   0.07440   0.07826   0.08121
 Alpha virt. eigenvalues --    0.09036   0.09866   0.10383   0.10881   0.11162
 Alpha virt. eigenvalues --    0.11978   0.12493   0.12698   0.13607   0.13982
 Alpha virt. eigenvalues --    0.14035   0.14370   0.14763   0.15319   0.15678
 Alpha virt. eigenvalues --    0.16340   0.17246   0.17415   0.17598   0.18291
 Alpha virt. eigenvalues --    0.18488   0.18620   0.19119   0.19272   0.19756
 Alpha virt. eigenvalues --    0.20055   0.20621   0.20951   0.21207   0.21472
 Alpha virt. eigenvalues --    0.21636   0.22084   0.22339   0.22573   0.22883
 Alpha virt. eigenvalues --    0.23069   0.23387   0.23864   0.24128   0.24866
 Alpha virt. eigenvalues --    0.25186   0.26341   0.26548   0.26678   0.27169
 Alpha virt. eigenvalues --    0.27752   0.28066   0.28186   0.28890   0.29430
 Alpha virt. eigenvalues --    0.29897   0.30092   0.30828   0.31160   0.31618
 Alpha virt. eigenvalues --    0.32047   0.32826   0.33128   0.33353   0.33828
 Alpha virt. eigenvalues --    0.34510   0.35766   0.36325   0.37045   0.38284
 Alpha virt. eigenvalues --    0.38431   0.39275   0.40350   0.40920   0.42488
 Alpha virt. eigenvalues --    0.44363   0.45278   0.45831   0.47455   0.48511
 Alpha virt. eigenvalues --    0.49344   0.50750   0.51325   0.51619   0.51963
 Alpha virt. eigenvalues --    0.52327   0.53161   0.53343   0.54229   0.54668
 Alpha virt. eigenvalues --    0.55140   0.55576   0.56340   0.56367   0.56832
 Alpha virt. eigenvalues --    0.57212   0.57850   0.58602   0.58936   0.59445
 Alpha virt. eigenvalues --    0.59983   0.60595   0.60757   0.61098   0.61641
 Alpha virt. eigenvalues --    0.62502   0.63177   0.63612   0.64802   0.65064
 Alpha virt. eigenvalues --    0.65383   0.65861   0.66220   0.67121   0.67241
 Alpha virt. eigenvalues --    0.68314   0.68454   0.68561   0.68732   0.69328
 Alpha virt. eigenvalues --    0.69604   0.69878   0.70749   0.71140   0.71751
 Alpha virt. eigenvalues --    0.72165   0.72377   0.73650   0.74036   0.74456
 Alpha virt. eigenvalues --    0.74855   0.75388   0.75983   0.76903   0.77712
 Alpha virt. eigenvalues --    0.78472   0.78718   0.78948   0.79147   0.79726
 Alpha virt. eigenvalues --    0.80136   0.80919   0.81563   0.82023   0.82926
 Alpha virt. eigenvalues --    0.83476   0.84436   0.84908   0.86416   0.87140
 Alpha virt. eigenvalues --    0.87372   0.88011   0.88909   0.89207   0.90308
 Alpha virt. eigenvalues --    0.91019   0.92066   0.93150   0.93686   0.94045
 Alpha virt. eigenvalues --    0.95062   0.95649   0.97058   0.98346   0.98980
 Alpha virt. eigenvalues --    0.99426   1.00188   1.01372   1.01847   1.02411
 Alpha virt. eigenvalues --    1.04037   1.04534   1.05621   1.05793   1.06602
 Alpha virt. eigenvalues --    1.07843   1.09052   1.09525   1.10600   1.11477
 Alpha virt. eigenvalues --    1.11817   1.12355   1.13271   1.13917   1.14938
 Alpha virt. eigenvalues --    1.15202   1.15384   1.15807   1.16418   1.17200
 Alpha virt. eigenvalues --    1.17934   1.19660   1.20178   1.20600   1.21384
 Alpha virt. eigenvalues --    1.22402   1.22996   1.24697   1.25301   1.26589
 Alpha virt. eigenvalues --    1.26836   1.27742   1.27981   1.28794   1.29400
 Alpha virt. eigenvalues --    1.29931   1.30715   1.31700   1.32239   1.33477
 Alpha virt. eigenvalues --    1.33780   1.34363   1.34848   1.35370   1.36246
 Alpha virt. eigenvalues --    1.36945   1.37629   1.38573   1.39163   1.39960
 Alpha virt. eigenvalues --    1.40335   1.40608   1.41423   1.41850   1.42314
 Alpha virt. eigenvalues --    1.43491   1.44506   1.45164   1.45557   1.46549
 Alpha virt. eigenvalues --    1.47189   1.48350   1.49715   1.50493   1.50692
 Alpha virt. eigenvalues --    1.51714   1.51949   1.53597   1.55102   1.56818
 Alpha virt. eigenvalues --    1.57604   1.57995   1.59805   1.62602   1.64303
 Alpha virt. eigenvalues --    1.64959   1.66777   1.67132   1.69063   1.69442
 Alpha virt. eigenvalues --    1.71073   1.72140   1.72850   1.73810   1.74206
 Alpha virt. eigenvalues --    1.76371   1.78968   1.79243   1.80395   1.80730
 Alpha virt. eigenvalues --    1.82102   1.82859   1.84484   1.87118   1.87357
 Alpha virt. eigenvalues --    1.87502   1.89465   1.92404   1.93235   1.95811
 Alpha virt. eigenvalues --    1.97195   1.98551   2.00704   2.02059   2.04589
 Alpha virt. eigenvalues --    2.07221   2.12628   2.13883   2.15130   2.18337
 Alpha virt. eigenvalues --    2.21100   2.26369   2.28802   2.29133   2.37284
 Alpha virt. eigenvalues --    2.39201   2.46536   2.48393   2.49580   2.51505
 Alpha virt. eigenvalues --    2.55025   2.57417   2.58378   2.60152   2.61870
 Alpha virt. eigenvalues --    2.62813   2.63883   2.65023   2.65103   2.65637
 Alpha virt. eigenvalues --    2.70007   2.70642   2.71012   2.71610   2.73004
 Alpha virt. eigenvalues --    2.73868   2.75432   2.75719   2.76369   2.76706
 Alpha virt. eigenvalues --    2.77115   2.77628   2.78421   2.78671   2.79264
 Alpha virt. eigenvalues --    2.80670   2.81010   2.81671   2.82327   2.83035
 Alpha virt. eigenvalues --    2.83822   2.84372   2.85349   2.85584   2.86080
 Alpha virt. eigenvalues --    2.86155   2.86573   2.87780   2.88333   2.88879
 Alpha virt. eigenvalues --    2.89210   2.89733   2.90148   2.90871   2.91388
 Alpha virt. eigenvalues --    2.92661   2.93248   2.93523   2.94153   2.96026
 Alpha virt. eigenvalues --    2.96413   2.97015   2.97381   2.99211   3.00904
 Alpha virt. eigenvalues --    3.01550   3.02528   3.04336   3.05110   3.06659
 Alpha virt. eigenvalues --    3.07469   3.09338   3.09994   3.10573   3.11326
 Alpha virt. eigenvalues --    3.12279   3.12364   3.12956   3.14068   3.14311
 Alpha virt. eigenvalues --    3.14809   3.15009   3.15804   3.17069   3.17667
 Alpha virt. eigenvalues --    3.19120   3.19737   3.19763   3.20357   3.20721
 Alpha virt. eigenvalues --    3.21713   3.22729   3.23659   3.24173   3.24523
 Alpha virt. eigenvalues --    3.25183   3.25866   3.26124   3.26891   3.28283
 Alpha virt. eigenvalues --    3.28972   3.29213   3.29955   3.30807   3.31550
 Alpha virt. eigenvalues --    3.32696   3.33280   3.34460   3.34845   3.35809
 Alpha virt. eigenvalues --    3.35989   3.37361   3.38809   3.39179   3.40142
 Alpha virt. eigenvalues --    3.41953   3.43552   3.44680   3.45807   3.45994
 Alpha virt. eigenvalues --    3.46721   3.46855   3.47436   3.48745   3.50060
 Alpha virt. eigenvalues --    3.50923   3.51999   3.52349   3.52593   3.53043
 Alpha virt. eigenvalues --    3.54033   3.54216   3.54804   3.57421   3.57895
 Alpha virt. eigenvalues --    3.58540   3.59565   3.61189   3.61324   3.62417
 Alpha virt. eigenvalues --    3.63566   3.65028   3.67519   3.68125   3.69021
 Alpha virt. eigenvalues --    3.69972   3.70636   3.70846   3.71130   3.71562
 Alpha virt. eigenvalues --    3.73883   3.75617   3.76437   3.76976   3.77256
 Alpha virt. eigenvalues --    3.77496   3.78959   3.79264   3.80069   3.80391
 Alpha virt. eigenvalues --    3.81994   3.82812   3.83526   3.85909   3.86885
 Alpha virt. eigenvalues --    3.87591   3.88860   3.89770   3.91609   3.92035
 Alpha virt. eigenvalues --    3.92672   3.94450   3.96154   3.96972   3.97190
 Alpha virt. eigenvalues --    3.98307   3.99921   4.02087   4.03029   4.05909
 Alpha virt. eigenvalues --    4.06204   4.07226   4.07843   4.09934   4.10328
 Alpha virt. eigenvalues --    4.10985   4.12029   4.13419   4.14392   4.15473
 Alpha virt. eigenvalues --    4.16268   4.16809   4.18629   4.19804   4.21981
 Alpha virt. eigenvalues --    4.23026   4.24996   4.25741   4.26973   4.27613
 Alpha virt. eigenvalues --    4.28659   4.28969   4.30487   4.30710   4.31567
 Alpha virt. eigenvalues --    4.33060   4.33966   4.34220   4.35702   4.36717
 Alpha virt. eigenvalues --    4.36883   4.38776   4.40236   4.40962   4.41595
 Alpha virt. eigenvalues --    4.42575   4.42811   4.44641   4.45074   4.45459
 Alpha virt. eigenvalues --    4.47736   4.48220   4.48627   4.50040   4.50779
 Alpha virt. eigenvalues --    4.51576   4.52200   4.52732   4.53359   4.54616
 Alpha virt. eigenvalues --    4.55946   4.56569   4.57231   4.58030   4.59265
 Alpha virt. eigenvalues --    4.60556   4.61012   4.62217   4.64947   4.66469
 Alpha virt. eigenvalues --    4.67648   4.71288   4.73354   4.75770   4.77751
 Alpha virt. eigenvalues --    4.81274   4.81799   4.84269   4.85304   4.85757
 Alpha virt. eigenvalues --    4.87050   4.88433   4.91265   4.96522   4.99704
 Alpha virt. eigenvalues --    4.99900   5.01880   5.04324   5.06421   5.09932
 Alpha virt. eigenvalues --    5.11081   5.12318   5.12553   5.14272   5.16256
 Alpha virt. eigenvalues --    5.18026   5.20472   5.21697   5.23788   5.26292
 Alpha virt. eigenvalues --    5.29688   5.31647   5.35994   5.36506   5.38551
 Alpha virt. eigenvalues --    5.41443   5.45438   5.47876   5.49592   5.50726
 Alpha virt. eigenvalues --    5.53689   5.54501   5.57535   5.60738   5.63990
 Alpha virt. eigenvalues --    5.66717   5.68068   5.70979   5.73177   5.74866
 Alpha virt. eigenvalues --    5.81541   5.83193   5.83807   5.85939   5.94824
 Alpha virt. eigenvalues --    5.95398   6.00753   6.04696   6.25845   6.41767
 Alpha virt. eigenvalues --    6.46772   6.59208   6.64312   6.77098   6.79653
 Alpha virt. eigenvalues --    6.87320   6.93567   6.99360   7.06208   7.17541
 Alpha virt. eigenvalues --    7.25353   7.38330   7.58342   7.70714   8.00499
 Alpha virt. eigenvalues --   23.87771  24.13665  24.36015  24.53588  24.57158
 Alpha virt. eigenvalues --   24.64651  24.67772  24.70633  24.78916  24.80181
 Alpha virt. eigenvalues --   24.81557  24.90875  25.10033  25.15188  25.31535
 Alpha virt. eigenvalues --   49.99083  50.00689
  Beta  occ. eigenvalues --  -19.70450 -19.68597 -10.56168 -10.55902 -10.55833
  Beta  occ. eigenvalues --  -10.55500 -10.55347 -10.55323 -10.55158 -10.55071
  Beta  occ. eigenvalues --  -10.55067 -10.55035 -10.55006 -10.54972 -10.54948
  Beta  occ. eigenvalues --  -10.54838 -10.54132  -1.22431  -1.00883  -1.00379
  Beta  occ. eigenvalues --   -0.96670  -0.92326  -0.89415  -0.86823  -0.84266
  Beta  occ. eigenvalues --   -0.81665  -0.78190  -0.72335  -0.72138  -0.69594
  Beta  occ. eigenvalues --   -0.67328  -0.62069  -0.61573  -0.60103  -0.58346
  Beta  occ. eigenvalues --   -0.55908  -0.55785  -0.54266  -0.51806  -0.50819
  Beta  occ. eigenvalues --   -0.50500  -0.49749  -0.48870  -0.48242  -0.47818
  Beta  occ. eigenvalues --   -0.46404  -0.45701  -0.44239  -0.42771  -0.42578
  Beta  occ. eigenvalues --   -0.40354  -0.39319  -0.39150  -0.38522  -0.38017
  Beta  occ. eigenvalues --   -0.35088  -0.33066  -0.28130  -0.26598
  Beta virt. eigenvalues --   -0.08709  -0.02856  -0.01936   0.00751   0.01358
  Beta virt. eigenvalues --    0.01477   0.01692   0.02803   0.03024   0.03238
  Beta virt. eigenvalues --    0.03919   0.04721   0.04756   0.05310   0.05969
  Beta virt. eigenvalues --    0.06718   0.06985   0.07325   0.07501   0.08063
  Beta virt. eigenvalues --    0.08468   0.09104   0.09865   0.10410   0.10939
  Beta virt. eigenvalues --    0.11175   0.12004   0.12608   0.12768   0.13610
  Beta virt. eigenvalues --    0.14034   0.14050   0.14422   0.14794   0.15387
  Beta virt. eigenvalues --    0.15756   0.16397   0.17279   0.17479   0.17675
  Beta virt. eigenvalues --    0.18285   0.18504   0.18636   0.19160   0.19287
  Beta virt. eigenvalues --    0.19810   0.20085   0.20659   0.20972   0.21241
  Beta virt. eigenvalues --    0.21489   0.21682   0.22092   0.22380   0.22633
  Beta virt. eigenvalues --    0.22945   0.23099   0.23445   0.23903   0.24226
  Beta virt. eigenvalues --    0.25008   0.25220   0.26339   0.26552   0.26711
  Beta virt. eigenvalues --    0.27219   0.27778   0.28120   0.28193   0.28993
  Beta virt. eigenvalues --    0.29419   0.29923   0.30126   0.30822   0.31204
  Beta virt. eigenvalues --    0.31620   0.32158   0.32926   0.33202   0.33405
  Beta virt. eigenvalues --    0.33824   0.34550   0.35786   0.36324   0.37131
  Beta virt. eigenvalues --    0.38282   0.38553   0.39338   0.40391   0.41025
  Beta virt. eigenvalues --    0.42523   0.44412   0.45508   0.46106   0.47533
  Beta virt. eigenvalues --    0.48565   0.49465   0.50777   0.51391   0.51667
  Beta virt. eigenvalues --    0.51992   0.52346   0.53189   0.53494   0.54297
  Beta virt. eigenvalues --    0.54734   0.55204   0.55619   0.56392   0.56461
  Beta virt. eigenvalues --    0.56961   0.57280   0.57897   0.58679   0.58984
  Beta virt. eigenvalues --    0.59479   0.60061   0.60648   0.60873   0.61183
  Beta virt. eigenvalues --    0.61716   0.62595   0.63297   0.63666   0.64896
  Beta virt. eigenvalues --    0.65102   0.65464   0.65927   0.66286   0.67204
  Beta virt. eigenvalues --    0.67607   0.68363   0.68526   0.68604   0.68774
  Beta virt. eigenvalues --    0.69382   0.69615   0.69951   0.70835   0.71202
  Beta virt. eigenvalues --    0.71767   0.72340   0.72416   0.73684   0.74079
  Beta virt. eigenvalues --    0.74592   0.74911   0.75521   0.76008   0.76916
  Beta virt. eigenvalues --    0.77739   0.78484   0.78759   0.78978   0.79220
  Beta virt. eigenvalues --    0.79930   0.80204   0.80967   0.81582   0.82052
  Beta virt. eigenvalues --    0.82975   0.83544   0.84493   0.85214   0.86468
  Beta virt. eigenvalues --    0.87168   0.87394   0.88121   0.88948   0.89241
  Beta virt. eigenvalues --    0.90340   0.91070   0.92242   0.93373   0.93758
  Beta virt. eigenvalues --    0.94064   0.95714   0.95743   0.97232   0.98452
  Beta virt. eigenvalues --    0.99082   0.99727   1.00232   1.01474   1.01888
  Beta virt. eigenvalues --    1.02469   1.04314   1.04578   1.05671   1.05989
  Beta virt. eigenvalues --    1.06637   1.07950   1.09064   1.09569   1.10628
  Beta virt. eigenvalues --    1.11537   1.11836   1.12379   1.13293   1.13918
  Beta virt. eigenvalues --    1.14975   1.15332   1.15409   1.15976   1.16755
  Beta virt. eigenvalues --    1.17216   1.17948   1.19759   1.20464   1.20866
  Beta virt. eigenvalues --    1.21528   1.22469   1.23023   1.24746   1.25622
  Beta virt. eigenvalues --    1.26701   1.27052   1.27892   1.28068   1.28820
  Beta virt. eigenvalues --    1.29486   1.29941   1.30752   1.31884   1.32307
  Beta virt. eigenvalues --    1.33548   1.33839   1.34447   1.35014   1.35413
  Beta virt. eigenvalues --    1.36350   1.37100   1.37661   1.38711   1.39336
  Beta virt. eigenvalues --    1.40004   1.40359   1.40651   1.41502   1.41922
  Beta virt. eigenvalues --    1.42378   1.43615   1.44652   1.45354   1.45637
  Beta virt. eigenvalues --    1.46563   1.47380   1.48514   1.49822   1.50525
  Beta virt. eigenvalues --    1.50785   1.51979   1.52104   1.53724   1.55227
  Beta virt. eigenvalues --    1.56992   1.58015   1.58421   1.60174   1.62885
  Beta virt. eigenvalues --    1.64463   1.65172   1.66917   1.67237   1.69123
  Beta virt. eigenvalues --    1.69945   1.71131   1.72216   1.73022   1.73899
  Beta virt. eigenvalues --    1.74259   1.76399   1.79014   1.79341   1.80444
  Beta virt. eigenvalues --    1.80759   1.82171   1.82942   1.84580   1.87158
  Beta virt. eigenvalues --    1.87411   1.87544   1.89751   1.92597   1.93541
  Beta virt. eigenvalues --    1.95834   1.97935   1.98644   2.00829   2.02090
  Beta virt. eigenvalues --    2.04658   2.07277   2.12746   2.13922   2.16468
  Beta virt. eigenvalues --    2.18604   2.21600   2.27058   2.28909   2.29331
  Beta virt. eigenvalues --    2.37127   2.39199   2.46948   2.48634   2.50008
  Beta virt. eigenvalues --    2.51597   2.55168   2.57484   2.58413   2.60442
  Beta virt. eigenvalues --    2.61993   2.62885   2.64016   2.65076   2.65216
  Beta virt. eigenvalues --    2.65778   2.70010   2.70792   2.71097   2.71760
  Beta virt. eigenvalues --    2.73101   2.73943   2.75452   2.75800   2.76418
  Beta virt. eigenvalues --    2.76934   2.77233   2.77839   2.78408   2.78724
  Beta virt. eigenvalues --    2.79320   2.80729   2.81103   2.81724   2.82386
  Beta virt. eigenvalues --    2.83166   2.83858   2.84534   2.85452   2.85642
  Beta virt. eigenvalues --    2.86157   2.86200   2.86652   2.87866   2.88366
  Beta virt. eigenvalues --    2.88973   2.89267   2.89771   2.90209   2.91022
  Beta virt. eigenvalues --    2.91480   2.92792   2.93333   2.93566   2.94251
  Beta virt. eigenvalues --    2.96021   2.96416   2.97122   2.97663   2.99336
  Beta virt. eigenvalues --    3.01045   3.01623   3.02704   3.04400   3.05436
  Beta virt. eigenvalues --    3.06763   3.07599   3.09863   3.10104   3.10694
  Beta virt. eigenvalues --    3.11417   3.12436   3.12459   3.13115   3.14170
  Beta virt. eigenvalues --    3.14402   3.15074   3.15137   3.15885   3.17272
  Beta virt. eigenvalues --    3.17777   3.19198   3.19858   3.19931   3.20439
  Beta virt. eigenvalues --    3.21127   3.21747   3.22953   3.23815   3.24253
  Beta virt. eigenvalues --    3.24705   3.25329   3.26121   3.26333   3.27120
  Beta virt. eigenvalues --    3.28481   3.29137   3.29308   3.30099   3.30907
  Beta virt. eigenvalues --    3.31663   3.32779   3.33683   3.34529   3.34987
  Beta virt. eigenvalues --    3.36011   3.36089   3.37517   3.38933   3.39536
  Beta virt. eigenvalues --    3.40244   3.42084   3.43673   3.44881   3.45866
  Beta virt. eigenvalues --    3.46132   3.46877   3.47005   3.47708   3.49023
  Beta virt. eigenvalues --    3.50369   3.51144   3.52434   3.52509   3.52837
  Beta virt. eigenvalues --    3.53249   3.54195   3.54473   3.55145   3.57569
  Beta virt. eigenvalues --    3.58275   3.58721   3.60170   3.61445   3.61647
  Beta virt. eigenvalues --    3.62615   3.63727   3.65188   3.67787   3.68407
  Beta virt. eigenvalues --    3.69667   3.70193   3.70744   3.70890   3.71263
  Beta virt. eigenvalues --    3.71752   3.74022   3.75744   3.76529   3.77059
  Beta virt. eigenvalues --    3.77314   3.77606   3.79024   3.79437   3.80200
  Beta virt. eigenvalues --    3.80484   3.82193   3.82991   3.83818   3.86136
  Beta virt. eigenvalues --    3.87044   3.87760   3.89276   3.89920   3.91908
  Beta virt. eigenvalues --    3.92304   3.92762   3.94942   3.96366   3.97156
  Beta virt. eigenvalues --    3.97251   3.98835   4.00194   4.02376   4.03255
  Beta virt. eigenvalues --    4.05997   4.06496   4.07457   4.07893   4.09975
  Beta virt. eigenvalues --    4.10343   4.11184   4.12093   4.13616   4.14410
  Beta virt. eigenvalues --    4.15647   4.16452   4.16982   4.18794   4.20020
  Beta virt. eigenvalues --    4.22159   4.23169   4.25368   4.26209   4.27213
  Beta virt. eigenvalues --    4.27772   4.28776   4.29040   4.30602   4.30962
  Beta virt. eigenvalues --    4.31785   4.33217   4.34096   4.34412   4.35827
  Beta virt. eigenvalues --    4.36885   4.37102   4.38837   4.40353   4.41065
  Beta virt. eigenvalues --    4.41659   4.42786   4.43037   4.44915   4.45266
  Beta virt. eigenvalues --    4.45589   4.47883   4.48334   4.48723   4.50123
  Beta virt. eigenvalues --    4.50879   4.51749   4.52354   4.52930   4.53464
  Beta virt. eigenvalues --    4.54718   4.56049   4.56668   4.57314   4.58216
  Beta virt. eigenvalues --    4.59367   4.60825   4.61323   4.62386   4.65166
  Beta virt. eigenvalues --    4.66628   4.67965   4.71399   4.73460   4.75916
  Beta virt. eigenvalues --    4.77981   4.81399   4.82074   4.84421   4.85498
  Beta virt. eigenvalues --    4.85815   4.87395   4.88749   4.91297   4.97052
  Beta virt. eigenvalues --    4.99783   5.00041   5.02111   5.04471   5.07329
  Beta virt. eigenvalues --    5.10146   5.12011   5.12409   5.13289   5.14510
  Beta virt. eigenvalues --    5.17193   5.18117   5.20782   5.22106   5.24026
  Beta virt. eigenvalues --    5.26349   5.29857   5.33651   5.36114   5.36905
  Beta virt. eigenvalues --    5.38779   5.41846   5.45657   5.48157   5.49828
  Beta virt. eigenvalues --    5.51225   5.53832   5.54686   5.58097   5.61283
  Beta virt. eigenvalues --    5.65004   5.67238   5.68961   5.71481   5.73273
  Beta virt. eigenvalues --    5.75035   5.81735   5.83335   5.83877   5.86032
  Beta virt. eigenvalues --    5.95093   5.96357   6.00806   6.04748   6.25943
  Beta virt. eigenvalues --    6.41859   6.46833   6.59744   6.64388   6.80608
  Beta virt. eigenvalues --    6.83191   6.87442   6.94349   7.02636   7.07066
  Beta virt. eigenvalues --    7.19420   7.26325   7.38560   7.61905   7.73208
  Beta virt. eigenvalues --    8.00913  23.87782  24.13684  24.36026  24.53883
  Beta virt. eigenvalues --   24.57351  24.64664  24.67765  24.70694  24.78939
  Beta virt. eigenvalues --   24.80171  24.81622  24.90914  25.10047  25.15218
  Beta virt. eigenvalues --   25.31563  49.99030  50.00065
          Condensed to atoms (all electrons):
               1          2          3          4          5          6
     1  C    7.190277  -0.677650   0.451899   0.470983   0.248830  -0.302699
     2  C   -0.677650   8.715073  -0.060249  -0.221332  -0.032150   0.589153
     3  H    0.451899  -0.060249   0.488981  -0.017521  -0.049586  -0.012755
     4  H    0.470983  -0.221332  -0.017521   0.499380   0.002176   0.019509
     5  H    0.248830  -0.032150  -0.049586   0.002176   0.453781   0.052024
     6  C   -0.302699   0.589153  -0.012755   0.019509   0.052024   6.775411
     7  C    0.099583  -0.417561  -0.010643   0.063871  -0.039566  -0.624404
     8  C   -0.270955   0.055345  -0.002674  -0.002477   0.017037  -0.482753
     9  H    0.006488   0.038939  -0.000951   0.000122  -0.000569   0.370349
    10  C    0.062209  -0.373288  -0.002820   0.026985  -0.005124  -0.058321
    11  H   -0.011084   0.006748   0.000128   0.001314   0.001269   0.011339
    12  C   -0.334366  -0.388389  -0.002986  -0.001425   0.012692  -0.013648
    13  H   -0.000216  -0.037215   0.000007  -0.000047   0.000002  -0.012977
    14  C   -0.088030  -0.531499   0.001566   0.002034  -0.002985  -0.005218
    15  C   -0.029674  -0.298713  -0.000097   0.000126   0.001807  -0.260605
    16  C   -0.021090  -0.044837  -0.000085  -0.000034  -0.001582   0.129015
    17  H   -0.001772   0.015428  -0.000010   0.000000  -0.000001   0.064313
    18  C   -0.045655   0.006374   0.000404  -0.000085   0.000641  -0.457648
    19  H    0.000169   0.001430   0.000000   0.000000   0.000000  -0.006142
    20  C    0.001990  -0.005071  -0.000009  -0.000020   0.000009   0.203256
    21  C   -0.056523  -0.691229  -0.000485  -0.000675   0.000115   0.133664
    22  C   -0.005793  -0.150269  -0.000022  -0.000021  -0.000018  -0.067489
    23  H    0.000402   0.002596   0.000000   0.000001   0.000000   0.000941
    24  C   -0.001860  -0.018340  -0.000000  -0.000001   0.000002  -0.010263
    25  H   -0.000004  -0.000145  -0.000000   0.000000  -0.000000   0.000256
    26  H   -0.000005  -0.000346   0.000000  -0.000000   0.000000  -0.000411
    27  H    0.000001   0.000046   0.000000  -0.000000  -0.000000   0.000059
    28  O   -0.098128   0.091992   0.017469  -0.003217  -0.082745  -0.040696
    29  O    0.080287   0.026991  -0.000277   0.000437   0.003829  -0.006728
    30  H   -0.017198   0.011168   0.000042   0.000083  -0.001830   0.002392
               7          8          9         10         11         12
     1  C    0.099583  -0.270955   0.006488   0.062209  -0.011084  -0.334366
     2  C   -0.417561   0.055345   0.038939  -0.373288   0.006748  -0.388389
     3  H   -0.010643  -0.002674  -0.000951  -0.002820   0.000128  -0.002986
     4  H    0.063871  -0.002477   0.000122   0.026985   0.001314  -0.001425
     5  H   -0.039566   0.017037  -0.000569  -0.005124   0.001269   0.012692
     6  C   -0.624404  -0.482753   0.370349  -0.058321   0.011339  -0.013648
     7  C    7.887586  -0.782871   0.016249   0.824940   0.329833  -0.760901
     8  C   -0.782871   9.483012  -0.100030   0.064950  -0.006631   1.172706
     9  H    0.016249  -0.100030   0.464371  -0.003076  -0.000124  -0.002743
    10  C    0.824940   0.064950  -0.003076   6.324982  -0.024890   0.357045
    11  H    0.329833  -0.006631  -0.000124  -0.024890   0.474514   0.062978
    12  C   -0.760901   1.172706  -0.002743   0.357045   0.062978   6.517819
    13  H   -0.000893  -0.014290   0.000032   0.400379  -0.006772  -0.067137
    14  C    0.182732  -1.492813   0.019668  -0.257999   0.001939   0.011870
    15  C   -0.424585   0.594072  -0.014413  -0.412749   0.003756   1.340848
    16  C    0.335002  -1.656773   0.036627   0.085922  -0.000686   0.005018
    17  H    0.005438  -0.120431   0.002352   0.005592  -0.000004   0.009753
    18  C   -0.406970   1.403791   0.002759  -0.258929   0.005066   0.056471
    19  H   -0.001278   0.050009  -0.000011   0.002128   0.000000  -0.016125
    20  C   -0.050583  -0.480475  -0.001040   0.006864   0.000440  -0.502093
    21  C    0.349613  -1.605987  -0.000066  -0.140336  -0.005225  -1.277634
    22  C    0.218949  -0.442074   0.000279  -0.124633  -0.001960  -0.324334
    23  H    0.007993   0.004365   0.000000   0.029635   0.000045   0.019885
    24  C   -0.046870   0.111829   0.000112  -0.138743   0.000054  -0.092309
    25  H   -0.000846   0.003318   0.000000  -0.002992   0.000000   0.002398
    26  H    0.000184  -0.005445  -0.000000   0.001755   0.000000  -0.009938
    27  H    0.000129   0.000898  -0.000000   0.001599  -0.000000   0.002928
    28  O   -0.008299  -0.008481  -0.001074   0.000973  -0.001091  -0.009007
    29  O   -0.004667  -0.006865  -0.000059  -0.014095  -0.000382  -0.014249
    30  H    0.004561  -0.000154   0.000092  -0.000706  -0.000025   0.000453
              13         14         15         16         17         18
     1  C   -0.000216  -0.088030  -0.029674  -0.021090  -0.001772  -0.045655
     2  C   -0.037215  -0.531499  -0.298713  -0.044837   0.015428   0.006374
     3  H    0.000007   0.001566  -0.000097  -0.000085  -0.000010   0.000404
     4  H   -0.000047   0.002034   0.000126  -0.000034   0.000000  -0.000085
     5  H    0.000002  -0.002985   0.001807  -0.001582  -0.000001   0.000641
     6  C   -0.012977  -0.005218  -0.260605   0.129015   0.064313  -0.457648
     7  C   -0.000893   0.182732  -0.424585   0.335002   0.005438  -0.406970
     8  C   -0.014290  -1.492813   0.594072  -1.656773  -0.120431   1.403791
     9  H    0.000032   0.019668  -0.014413   0.036627   0.002352   0.002759
    10  C    0.400379  -0.257999  -0.412749   0.085922   0.005592  -0.258929
    11  H   -0.006772   0.001939   0.003756  -0.000686  -0.000004   0.005066
    12  C   -0.067137   0.011870   1.340848   0.005018   0.009753   0.056471
    13  H    0.466714   0.013602  -0.023446   0.009556   0.000013  -0.006187
    14  C    0.013602   7.940226  -0.146011   1.568204   0.413143  -2.088530
    15  C   -0.023446  -0.146011   8.392374  -1.164783  -0.013415   1.160476
    16  C    0.009556   1.568204  -1.164783   8.029888  -0.021794  -1.796994
    17  H    0.000013   0.413143  -0.013415  -0.021794   0.476365   0.011023
    18  C   -0.006187  -2.088530   1.160476  -1.796994   0.011023   9.347060
    19  H   -0.000002  -0.036270   0.001517   0.365605  -0.006899  -0.048820
    20  C    0.000354   0.414254  -1.112308   0.459179   0.000966  -0.902771
    21  C    0.073794   0.828116  -1.661051   0.637449   0.003570  -0.343930
    22  C    0.032712   0.129153  -1.146443   0.250989  -0.000475   0.036622
    23  H    0.000959   0.001227  -0.024277   0.009108  -0.000002   0.004896
    24  C   -0.000816  -0.325864   0.697128  -0.824748   0.000315  -0.026649
    25  H    0.000032  -0.000426   0.058192   0.001402   0.000000  -0.011128
    26  H    0.000000   0.030728  -0.010643   0.054703  -0.000014  -0.132518
    27  H   -0.000001   0.000118   0.006207   0.000872  -0.000001   0.032416
    28  O    0.000010  -0.000696   0.000110  -0.001048   0.000004   0.000547
    29  O   -0.000004  -0.000174  -0.000741  -0.000034   0.000001  -0.000427
    30  H   -0.000003   0.000599   0.000018   0.000137  -0.000001  -0.000077
              19         20         21         22         23         24
     1  C    0.000169   0.001990  -0.056523  -0.005793   0.000402  -0.001860
     2  C    0.001430  -0.005071  -0.691229  -0.150269   0.002596  -0.018340
     3  H    0.000000  -0.000009  -0.000485  -0.000022   0.000000  -0.000000
     4  H    0.000000  -0.000020  -0.000675  -0.000021   0.000001  -0.000001
     5  H    0.000000   0.000009   0.000115  -0.000018   0.000000   0.000002
     6  C   -0.006142   0.203256   0.133664  -0.067489   0.000941  -0.010263
     7  C   -0.001278  -0.050583   0.349613   0.218949   0.007993  -0.046870
     8  C    0.050009  -0.480475  -1.605987  -0.442074   0.004365   0.111829
     9  H   -0.000011  -0.001040  -0.000066   0.000279   0.000000   0.000112
    10  C    0.002128   0.006864  -0.140336  -0.124633   0.029635  -0.138743
    11  H    0.000000   0.000440  -0.005225  -0.001960   0.000045   0.000054
    12  C   -0.016125  -0.502093  -1.277634  -0.324334   0.019885  -0.092309
    13  H   -0.000002   0.000354   0.073794   0.032712   0.000959  -0.000816
    14  C   -0.036270   0.414254   0.828116   0.129153   0.001227  -0.325864
    15  C    0.001517  -1.112308  -1.661051  -1.146443  -0.024277   0.697128
    16  C    0.365605   0.459179   0.637449   0.250989   0.009108  -0.824748
    17  H   -0.006899   0.000966   0.003570  -0.000475  -0.000002   0.000315
    18  C   -0.048820  -0.902771  -0.343930   0.036622   0.004896  -0.026649
    19  H    0.480219   0.045234   0.003426  -0.000317   0.000014   0.011059
    20  C    0.045234   6.561945   1.143559  -0.379090  -0.016252   0.189663
    21  C    0.003426   1.143559   8.794828   0.515583   0.374717  -0.662029
    22  C   -0.000317  -0.379090   0.515583   6.945785  -0.040588   0.748419
    23  H    0.000014  -0.016252   0.374717  -0.040588   0.472462  -0.013043
    24  C    0.011059   0.189663  -0.662029   0.748419  -0.013043   6.496881
    25  H   -0.000003   0.005069  -0.071669   0.376662  -0.006604   0.020028
    26  H    0.002117   0.455697   0.002191  -0.000836   0.000034  -0.014862
    27  H   -0.000015  -0.032952   0.024472  -0.004479  -0.000076   0.346775
    28  O    0.000000  -0.000070  -0.001188  -0.000058   0.000000  -0.000004
    29  O    0.000000  -0.000024  -0.000606   0.000003   0.000000  -0.000004
    30  H   -0.000000  -0.000003   0.000189   0.000017  -0.000000   0.000001
              25         26         27         28         29         30
     1  C   -0.000004  -0.000005   0.000001  -0.098128   0.080287  -0.017198
     2  C   -0.000145  -0.000346   0.000046   0.091992   0.026991   0.011168
     3  H   -0.000000   0.000000   0.000000   0.017469  -0.000277   0.000042
     4  H    0.000000  -0.000000  -0.000000  -0.003217   0.000437   0.000083
     5  H   -0.000000   0.000000  -0.000000  -0.082745   0.003829  -0.001830
     6  C    0.000256  -0.000411   0.000059  -0.040696  -0.006728   0.002392
     7  C   -0.000846   0.000184   0.000129  -0.008299  -0.004667   0.004561
     8  C    0.003318  -0.005445   0.000898  -0.008481  -0.006865  -0.000154
     9  H    0.000000  -0.000000  -0.000000  -0.001074  -0.000059   0.000092
    10  C   -0.002992   0.001755   0.001599   0.000973  -0.014095  -0.000706
    11  H    0.000000   0.000000  -0.000000  -0.001091  -0.000382  -0.000025
    12  C    0.002398  -0.009938   0.002928  -0.009007  -0.014249   0.000453
    13  H    0.000032   0.000000  -0.000001   0.000010  -0.000004  -0.000003
    14  C   -0.000426   0.030728   0.000118  -0.000696  -0.000174   0.000599
    15  C    0.058192  -0.010643   0.006207   0.000110  -0.000741   0.000018
    16  C    0.001402   0.054703   0.000872  -0.001048  -0.000034   0.000137
    17  H    0.000000  -0.000014  -0.000001   0.000004   0.000001  -0.000001
    18  C   -0.011128  -0.132518   0.032416   0.000547  -0.000427  -0.000077
    19  H   -0.000003   0.002117  -0.000015   0.000000   0.000000  -0.000000
    20  C    0.005069   0.455697  -0.032952  -0.000070  -0.000024  -0.000003
    21  C   -0.071669   0.002191   0.024472  -0.001188  -0.000606   0.000189
    22  C    0.376662  -0.000836  -0.004479  -0.000058   0.000003   0.000017
    23  H   -0.006604   0.000034  -0.000076   0.000000   0.000000  -0.000000
    24  C    0.020028  -0.014862   0.346775  -0.000004  -0.000004   0.000001
    25  H    0.484246  -0.000112  -0.006790   0.000000  -0.000000  -0.000000
    26  H   -0.000112   0.483255  -0.006611  -0.000000   0.000000   0.000000
    27  H   -0.006790  -0.006611   0.482149  -0.000000   0.000000  -0.000000
    28  O    0.000000  -0.000000  -0.000000   8.309444   0.098575  -0.035447
    29  O   -0.000000   0.000000   0.000000   0.098575   7.748881   0.257127
    30  H   -0.000000   0.000000  -0.000000  -0.035447   0.257127   0.521518
          Atomic-Atomic Spin Densities.
               1          2          3          4          5          6
     1  C    0.498869   0.009020  -0.039123  -0.018062   0.120208  -0.011866
     2  C    0.009020  -0.297029   0.012811   0.009091  -0.009604  -0.011304
     3  H   -0.039123   0.012811   0.009790   0.003993  -0.010818   0.008398
     4  H   -0.018062   0.009091   0.003993  -0.018251  -0.000314   0.003810
     5  H    0.120208  -0.009604  -0.010818  -0.000314  -0.035873  -0.019863
     6  C   -0.011866  -0.011304   0.008398   0.003810  -0.019863   0.070961
     7  C    0.020329   0.112411  -0.006707  -0.006420   0.021991   0.017518
     8  C   -0.012770  -0.077547   0.004858   0.001366  -0.010480   0.018720
     9  H    0.000040  -0.000917  -0.000228   0.000004  -0.000331   0.000280
    10  C   -0.006176   0.075429   0.002162   0.000687  -0.001537   0.019346
    11  H    0.000436  -0.000189  -0.000034   0.000091  -0.000135  -0.000484
    12  C    0.006480   0.015665   0.004298   0.001831  -0.008676  -0.002815
    13  H    0.000065  -0.000709  -0.000001  -0.000001   0.000000   0.000007
    14  C    0.000328   0.019789   0.000210  -0.000013   0.000342  -0.005938
    15  C    0.001853  -0.003798   0.000281   0.000149  -0.000539  -0.006800
    16  C   -0.000251   0.018792  -0.000090  -0.000030   0.000320  -0.007872
    17  H    0.000007   0.000124  -0.000000  -0.000000   0.000003   0.000621
    18  C   -0.001086  -0.016549   0.000308   0.000070  -0.000637  -0.002922
    19  H   -0.000001  -0.000018   0.000000   0.000000  -0.000000  -0.000044
    20  C    0.000234   0.005197   0.000007   0.000001  -0.000013  -0.002440
    21  C    0.003010   0.052406   0.000018   0.000001  -0.000033  -0.008323
    22  C    0.000123   0.008364  -0.000005  -0.000003   0.000012  -0.001564
    23  H   -0.000004  -0.000065   0.000000   0.000000  -0.000000   0.000009
    24  C    0.000012   0.001476   0.000003   0.000001  -0.000006  -0.002202
    25  H   -0.000000   0.000001   0.000000   0.000000  -0.000000  -0.000002
    26  H    0.000000   0.000002   0.000000   0.000000  -0.000000   0.000003
    27  H    0.000000  -0.000000  -0.000000  -0.000000   0.000000   0.000002
    28  O   -0.206596   0.006553   0.013103   0.006991  -0.051475   0.030251
    29  O    0.042280  -0.021758  -0.001785  -0.001337   0.018360  -0.007960
    30  H   -0.000331   0.000416   0.000015   0.000013   0.000395   0.000178
               7          8          9         10         11         12
     1  C    0.020329  -0.012770   0.000040  -0.006176   0.000436   0.006480
     2  C    0.112411  -0.077547  -0.000917   0.075429  -0.000189   0.015665
     3  H   -0.006707   0.004858  -0.000228   0.002162  -0.000034   0.004298
     4  H   -0.006420   0.001366   0.000004   0.000687   0.000091   0.001831
     5  H    0.021991  -0.010480  -0.000331  -0.001537  -0.000135  -0.008676
     6  C    0.017518   0.018720   0.000280   0.019346  -0.000484  -0.002815
     7  C    0.061675   0.002793   0.000669  -0.061338   0.001417  -0.060609
     8  C    0.002793  -0.115984   0.000012   0.004968  -0.000177   0.014756
     9  H    0.000669   0.000012  -0.003349   0.000219  -0.000000   0.000048
    10  C   -0.061338   0.004968   0.000219  -0.061013   0.000558   0.008401
    11  H    0.001417  -0.000177  -0.000000   0.000558  -0.001777  -0.000846
    12  C   -0.060609   0.014756   0.000048   0.008401  -0.000846   0.045707
    13  H    0.001595  -0.000153   0.000001   0.001042  -0.000007  -0.001587
    14  C   -0.004333   0.034108  -0.000239   0.003661   0.000049   0.003357
    15  C   -0.024416   0.007583   0.000061  -0.013546  -0.000196  -0.015950
    16  C    0.000642   0.040663  -0.000037   0.006027   0.000019   0.011765
    17  H    0.000094  -0.000858   0.000007   0.000081   0.000000   0.000002
    18  C   -0.012745  -0.034293  -0.000089  -0.008434  -0.000103  -0.014498
    19  H    0.000002  -0.000127  -0.000000  -0.000022  -0.000000   0.000064
    20  C   -0.001857   0.017732  -0.000011   0.001942  -0.000007   0.003012
    21  C   -0.008396   0.044297   0.000024  -0.002144  -0.000178   0.010658
    22  C    0.004733   0.010374   0.000005   0.005218   0.000004   0.012430
    23  H   -0.000185   0.000066  -0.000000   0.000067   0.000000   0.000078
    24  C   -0.002841   0.008714  -0.000001  -0.002841  -0.000004   0.002469
[...]
 ! D11   D(1,2,6,9)              1.4367         calculate D2E/DX2 analytically  !
 ! D12   D(7,2,6,8)              0.5391         calculate D2E/DX2 analytically  !
 ! D13   D(7,2,6,9)            179.091          calculate D2E/DX2 analytically  !
 ! D14   D(1,2,7,10)           177.4272         calculate D2E/DX2 analytically  !
 ! D15   D(1,2,7,11)            -2.2211         calculate D2E/DX2 analytically  !
 ! D16   D(6,2,7,10)            -0.2623         calculate D2E/DX2 analytically  !
 ! D17   D(6,2,7,11)          -179.9106         calculate D2E/DX2 analytically  !
 ! D18   D(1,5,28,29)           64.7027         calculate D2E/DX2 analytically  !
 ! D19   D(2,6,8,12)            -0.5422         calculate D2E/DX2 analytically  !
 ! D20   D(2,6,8,14)           178.5775         calculate D2E/DX2 analytically  !
 ! D21   D(9,6,8,12)          -179.1134         calculate D2E/DX2 analytically  !
 ! D22   D(9,6,8,14)             0.0063         calculate D2E/DX2 analytically  !
 ! D23   D(2,7,10,12)           -0.0129         calculate D2E/DX2 analytically  !
 ! D24   D(2,7,10,13)         -179.573          calculate D2E/DX2 analytically  !
 ! D25   D(11,7,10,12)         179.6336         calculate D2E/DX2 analytically  !
 ! D26   D(11,7,10,13)           0.0736         calculate D2E/DX2 analytically  !
 ! D27   D(6,8,12,10)            0.2465         calculate D2E/DX2 analytically  !
 ! D28   D(6,8,12,15)          179.8973         calculate D2E/DX2 analytically  !
 ! D29   D(14,8,12,10)        -178.8786         calculate D2E/DX2 analytically  !
 ! D30   D(14,8,12,15)           0.7722         calculate D2E/DX2 analytically  !
 ! D31   D(6,8,14,16)         -179.0279         calculate D2E/DX2 analytically  !
 ! D32   D(6,8,14,17)            0.5911         calculate D2E/DX2 analytically  !
 ! D33   D(12,8,14,16)           0.0926         calculate D2E/DX2 analytically  !
 ! D34   D(12,8,14,17)         179.7116         calculate D2E/DX2 analytically  !
 ! D35   D(7,10,12,8)            0.02           calculate D2E/DX2 analytically  !
 ! D36   D(7,10,12,15)        -179.6166         calculate D2E/DX2 analytically  !
 ! D37   D(13,10,12,8)         179.5727         calculate D2E/DX2 analytically  !
 ! D38   D(13,10,12,15)         -0.0638         calculate D2E/DX2 analytically  !
 ! D39   D(8,12,15,18)          -1.1511         calculate D2E/DX2 analytically  !
 ! D40   D(8,12,15,21)         178.7871         calculate D2E/DX2 analytically  !
 ! D41   D(10,12,15,18)        178.4794         calculate D2E/DX2 analytically  !
 ! D42   D(10,12,15,21)         -1.5824         calculate D2E/DX2 analytically  !
 ! D43   D(8,14,16,18)          -0.5768         calculate D2E/DX2 analytically  !
 ! D44   D(8,14,16,19)         179.3939         calculate D2E/DX2 analytically  !
 ! D45   D(17,14,16,18)        179.8141         calculate D2E/DX2 analytically  !
 ! D46   D(17,14,16,19)         -0.2153         calculate D2E/DX2 analytically  !
 ! D47   D(12,15,18,16)          0.6902         calculate D2E/DX2 analytically  !
 ! D48   D(12,15,18,20)       -179.5017         calculate D2E/DX2 analytically  !
 ! D49   D(21,15,18,16)       -179.2509         calculate D2E/DX2 analytically  !
 ! D50   D(21,15,18,20)          0.5571         calculate D2E/DX2 analytically  !
 ! D51   D(12,15,21,22)        179.6639         calculate D2E/DX2 analytically  !
 ! D52   D(12,15,21,23)         -0.6729         calculate D2E/DX2 analytically  !
 ! D53   D(18,15,21,22)         -0.3975         calculate D2E/DX2 analytically  !
 ! D54   D(18,15,21,23)        179.2658         calculate D2E/DX2 analytically  !
 ! D55   D(14,16,18,15)          0.1739         calculate D2E/DX2 analytically  !
 ! D56   D(14,16,18,20)       -179.6327         calculate D2E/DX2 analytically  !
 ! D57   D(19,16,18,15)       -179.7975         calculate D2E/DX2 analytically  !
 ! D58   D(19,16,18,20)          0.3959         calculate D2E/DX2 analytically  !
 ! D59   D(15,18,20,24)         -0.293          calculate D2E/DX2 analytically  !
 ! D60   D(15,18,20,26)        179.5951         calculate D2E/DX2 analytically  !
 ! D61   D(16,18,20,24)        179.5138         calculate D2E/DX2 analytically  !
 ! D62   D(16,18,20,26)         -0.5981         calculate D2E/DX2 analytically  !
 ! D63   D(18,20,24,22)         -0.1482         calculate D2E/DX2 analytically  !
 ! D64   D(18,20,24,27)       -179.9566         calculate D2E/DX2 analytically  !
 ! D65   D(26,20,24,22)        179.9658         calculate D2E/DX2 analytically  !
 ! D66   D(26,20,24,27)          0.1574         calculate D2E/DX2 analytically  !
 ! D67   D(15,21,22,24)         -0.0372         calculate D2E/DX2 analytically  !
 ! D68   D(15,21,22,25)        179.9355         calculate D2E/DX2 analytically  !
 ! D69   D(23,21,22,24)       -179.7051         calculate D2E/DX2 analytically  !
 ! D70   D(23,21,22,25)          0.2675         calculate D2E/DX2 analytically  !
 ! D71   D(21,22,24,20)          0.3159         calculate D2E/DX2 analytically  !
 ! D72   D(21,22,24,27)       -179.875          calculate D2E/DX2 analytically  !
 ! D73   D(25,22,24,20)       -179.6567         calculate D2E/DX2 analytically  !
 ! D74   D(25,22,24,27)          0.1524         calculate D2E/DX2 analytically  !
 ! D75   D(5,28,29,30)         -45.2331         calculate D2E/DX2 analytically  !
 --------------------------------------------------------------------------------
 Trust Radius=3.00D-01 FncErr=1.00D-07 GrdErr=1.00D-07 EigMax=2.50D+02 EigMin=1.00D-04
 Number of steps in this run=      2 maximum allowed number of steps=      2.
 GradGradGradGradGradGradGradGradGradGradGradGradGradGradGradGradGradGrad

                          Input orientation:                          
 ---------------------------------------------------------------------
 Center     Atomic      Atomic             Coordinates (Angstroms)
 Number     Number       Type             X           Y           Z
 ---------------------------------------------------------------------
      1          6           0        7.859389   -2.079623    0.745119
      2          6           0        6.396524   -1.763417    0.625505
      3          1           0        8.015713   -3.055759    1.197954
      4          1           0        8.375003   -1.330520    1.344058
      5          1           0        8.321419   -2.094880   -0.242659
      6          6           0        5.436633   -2.749231    0.658582
      7          6           0        5.969358   -0.436408    0.423837
      8          6           0        4.067004   -2.462866    0.486918
      9          1           0        5.732364   -3.782129    0.797093
     10          6           0        4.640364   -0.129031    0.259269
     11          1           0        6.707737    0.354112    0.392953
     12          6           0        3.647274   -1.128916    0.284957
     13          1           0        4.366732    0.902868    0.100904
     14          6           0        3.097506   -3.521001    0.497260
     15          6           0        2.232520   -0.847203    0.107026
     16          6           0        1.787843   -3.261645    0.314799
     17          1           0        3.446402   -4.534173    0.649256
     18          6           0        1.315325   -1.921488    0.116485
     19          1           0        1.062445   -4.064153    0.313810
     20          6           0       -0.057397   -1.668597   -0.064872
     21          6           0        1.728695    0.455058   -0.074405
     22          6           0        0.384430    0.680377   -0.246276
     23          1           0        2.400043    1.300271   -0.075047
     24          6           0       -0.520741   -0.390108   -0.245363
     25          1           0        0.023625    1.690582   -0.382592
     26          1           0       -0.743277   -2.505683   -0.061048
     27          1           0       -1.577107   -0.206069   -0.383153
     28          8           0        6.635177   -2.957569   -2.374601
     29          8           0        5.670832   -2.090271   -2.503952
     30          1           0        5.353074   -1.903577   -1.599077
 ---------------------------------------------------------------------
                    Distance matrix (angstroms):
                    1          2          3          4          5
     1  C    0.000000
     2  C    1.501421   0.000000
     3  H    1.087354   2.149330   0.000000
     4  H    1.088916   2.148975   1.768300   0.000000
     5  H    1.090601   2.137474   1.758440   1.762040   0.000000
     6  C    2.515076   1.376341   2.652647   3.334161   3.092313
     7  C    2.524993   1.408578   3.412891   2.726420   2.954139
     8  C    3.820435   2.436206   4.055786   4.536049   4.332175
     9  H    2.724970   2.132076   2.429400   3.645969   3.260537
    10  C    3.795126   2.426818   4.565069   4.070365   4.203173
    11  H    2.715399   2.152874   3.739793   2.553891   3.000922
    12  C    4.342523   2.841996   4.861024   4.849098   4.801989
    13  H    4.637771   3.391805   5.494481   4.753913   4.974342
    14  C    4.981419   3.740197   4.989608   5.776439   5.465398
    15  C    5.795488   4.295021   6.285951   6.284420   6.225245
    16  C    6.200486   4.856045   6.293546   6.941130   6.660309
    17  H    5.050589   4.047329   4.833775   5.919226   5.523717
    18  C    6.576090   5.109078   6.881232   7.189939   7.017436
    19  H    7.093859   5.817469   7.081420   7.874494   7.541910
    20  C    7.968722   6.491434   8.288188   8.555977   8.391537
    21  C    6.684432   5.215375   7.312410   7.026644   7.070679
    22  C    8.029662   6.548085   8.618643   8.391789   8.408202
    23  H    6.473083   5.084173   7.220200   6.680948   6.827726
    24  C    8.605934   7.105839   9.058693   9.085422   9.005002
    25  H    8.768431   7.318485   9.428646   9.047314   9.121551
    26  H    8.650855   7.211039   8.866092   9.300449   9.075818
    27  H    9.686622   8.186667  10.131280  10.163274  10.078103
    28  O    3.464410   3.237837   3.831275   4.416186   2.851810
    29  O    3.917443   3.229081   4.487175   4.764130   3.484118
    30  H    3.436257   2.461138   4.029957   4.257052   3.269181
                    6          7          8          9         10
     6  C    0.000000
     7  C    2.384963   0.000000
     8  C    1.409736   2.780191   0.000000
     9  H    1.083291   3.374808   2.147111   0.000000
    10  C    2.767480   1.373969   2.413990   3.850564   0.000000
    11  H    3.364076   1.082165   3.862340   4.268861   2.127283
    12  C    2.442708   2.427124   1.412935   3.413125   1.409488
    13  H    3.846235   2.113376   3.401031   4.929384   1.079245
    14  C    2.468435   4.215168   1.435160   2.664688   3.733967
    15  C    3.766732   3.772676   2.473867   4.619404   2.517273
    16  C    3.700598   5.047665   2.421208   4.007837   4.237125
    17  H    2.673410   4.817447   2.168366   2.411026   4.580710
    18  C    4.238420   4.894890   2.828789   4.841017   3.780102
    19  H    4.580547   6.103314   3.409027   4.703323   5.318803
    20  C    5.645841   6.170811   4.236275   6.223450   4.954219
    21  C    4.955153   4.361901   3.781144   5.894287   2.988363
    22  C    6.172984   5.734779   4.896826   7.042938   4.361616
    23  H    5.114446   4.000619   4.154005   6.139688   2.678378
    24  C    6.470926   6.524674   5.087236   7.189843   5.192285
    25  H    7.077898   6.366016   5.861407   7.995744   5.003724
    26  H    6.226433   7.041057   4.841581   6.655798   5.893612
    27  H    7.532957   7.592985   6.140533   8.222502   6.251046
    28  O    3.268045   3.825026   3.876666   3.399208   4.349388
    29  O    3.238935   3.375845   3.414146   3.709861   3.541710
    30  H    2.412289   2.573825   2.513594   3.068297   2.666537
                   11         12         13         14         15
    11  H    0.000000
    12  C    3.402568   0.000000
    13  H    2.422134   2.163248   0.000000
    14  C    5.297278   2.463613   4.619378   0.000000
    15  C    4.642466   1.453462   2.760009   2.837196   0.000000
    16  C    6.106159   2.829648   4.903019   1.347507   2.463826
    17  H    5.881949   3.430574   5.541580   1.082288   3.919345
    18  C    5.859428   2.468712   4.157922   2.424789   1.412594
    19  H    7.169146   3.911239   5.969501   2.114271   3.429373
    20  C    7.075875   3.760083   5.119847   3.701460   2.438843
    21  C    5.001947   2.513774   2.681512   4.243759   1.408062
    22  C    6.363905   3.768541   4.003594   5.056204   2.423584
    23  H    4.435140   2.754294   2.014138   4.904962   2.161680
    24  C    7.294670   4.266079   5.067454   4.842075   2.813105
    25  H    6.860392   4.639615   4.440365   6.114204   3.399897
    26  H    7.993883   4.614341   6.144644   4.011757   3.410890
    27  H    8.339951   5.347165   6.065746   5.797923   3.894173
    28  O    4.316463   4.398271   5.116341   4.591314   5.476816
    29  O    3.929661   3.577290   4.176701   4.204316   4.492706
    30  H    3.301585   2.656960   3.426214   3.478257   3.710063
                   16         17         18         19         20
    16  C    0.000000
    17  H    2.117075   0.000000
    18  C    1.434790   3.413423   0.000000
    19  H    1.081768   2.452895   2.166541   0.000000
    20  C    2.467157   4.582370   1.407555   2.671355   0.000000
    21  C    3.737494   5.326033   2.419769   4.584525   2.774910
    22  C    4.221837   6.113034   2.787088   4.825346   2.397039
    23  H    4.619291   5.971617   3.404853   5.542330   3.853997
    24  C    3.726804   5.806190   2.418098   4.039524   1.371786
    25  H    5.303148   7.178279   3.868413   5.889066   3.375144
    26  H    2.668203   4.708791   2.147241   2.414535   1.082201
    27  H    4.598540   6.710737   3.399774   4.726289   2.133028
    28  O    5.551755   4.668798   5.964881   6.285494   7.196308
    29  O    4.939137   4.567654   5.085825   5.750933   6.240155
    30  H    4.268271   3.951003   4.387127   5.170756   5.628694
                   21         22         23         24         25
    21  C    0.000000
    22  C    1.373811   0.000000
    23  H    1.079395   2.115723   0.000000
    24  C    2.409045   1.401882   3.378960   0.000000
    25  H    2.128089   1.081331   2.427816   2.155096   0.000000
    26  H    3.857047   3.384820   4.936187   2.135217   4.277870
    27  H    3.385372   2.156884   4.264002   1.081094   2.481860
    28  O    6.403944   7.538983   6.430670   7.895105   8.323824
    29  O    5.284112   6.381194   5.300321   6.806420   7.119408
    30  H    4.585183   5.761451   4.616026   6.214888   6.542235
                   26         27         28         29         30
    26  H    0.000000
    27  H    2.467235   0.000000
    28  O    7.745858   8.886970   0.000000
    29  O    6.876129   7.783355   1.303419   0.000000
    30  H    6.316135   7.237914   1.831973   0.977048   0.000000
 Stoichiometry    C15H13O2(2)
 Framework group  C1[X(C15H13O2)]
 Deg. of freedom    84
 Full point group                 C1      NOp   1
 Largest Abelian subgroup         C1      NOp   1
 Largest concise Abelian subgroup C1      NOp   1
                         Standard orientation:                         
 ---------------------------------------------------------------------
 Center     Atomic      Atomic             Coordinates (Angstroms)
 Number     Number       Type             X           Y           Z
 ---------------------------------------------------------------------
      1          6           0        4.145506   -0.461247   -1.035728
      2          6           0        2.656362   -0.444973   -0.844805
      3          1           0        4.485527    0.429929   -1.557771
      4          1           0        4.459032   -1.337647   -1.600850
      5          1           0        4.647076   -0.489734   -0.067727
      6          6           0        1.929747    0.722096   -0.910340
      7          6           0        1.964785   -1.633750   -0.540463
      8          6           0        0.540465    0.750212   -0.672727
      9          1           0        2.433074    1.656442   -1.127551
     10          6           0        0.610296   -1.635338   -0.309928
     11          1           0        2.517077   -2.562563   -0.482479
     12          6           0       -0.145332   -0.446926   -0.367886
     13          1           0        0.129698   -2.572363   -0.073750
     14          6           0       -0.178918    1.991152   -0.720081
     15          6           0       -1.577337   -0.404120   -0.122774
     16          6           0       -1.503389    2.033194   -0.475575
     17          1           0        0.371395    2.893958   -0.951261
     18          6           0       -2.242190    0.841254   -0.172132
     19          1           0       -2.038912    2.972707   -0.503023
     20          6           0       -3.626845    0.903220    0.073021
     21          6           0       -2.339365   -1.553310    0.162388
     22          6           0       -3.690804   -1.471200    0.395261
     23          1           0       -1.865650   -2.522611    0.196179
     24          6           0       -4.344330   -0.231645    0.354262
     25          1           0       -4.252852   -2.369435    0.611019
     26          1           0       -4.116632    1.867573    0.037102
     27          1           0       -5.407697   -0.173761    0.540447
     28          8           0        3.289721    0.839785    2.058959
     29          8           0        2.169198    0.211402    2.279104
     30          1           0        1.775602    0.046295    1.400215
 ---------------------------------------------------------------------
 Rotational constants (GHZ):           0.9395813           0.2909121           0.2744976
 Standard basis: 6-311+G(2df,2p) (5D, 7F)
 There are   780 symmetry adapted cartesian basis functions of A   symmetry.
 There are   695 symmetry adapted basis functions of A   symmetry.
   695 basis functions,  1027 primitive gaussians,   780 cartesian basis functions
    60 alpha electrons       59 beta electrons
       nuclear repulsion energy      1115.0823944943 Hartrees.
 NAtoms=   30 NActive=   30 NUniq=   30 SFac= 1.00D+00 NAtFMM=   60 NAOKFM=F Big=F
 Integral buffers will be    131072 words long.
 Raffenetti 2 integral format.
 Two-electron integral symmetry is turned on.
 One-electron integrals computed using PRISM.
 NBasis=   695 RedAO= T EigKep=  1.72D-06  NBF=   695
 NBsUse=   687 1.00D-06 EigRej=  9.91D-07 NBFU=   687
 Initial guess from the checkpoint file:  "/scratch/dinius.ab/QMscratch/Gau-16774.chk"
 B after Tr=     0.000000    0.000000   -0.000000
         Rot=    1.000000   -0.000000    0.000000    0.000000 Ang=   0.00 deg.
 Initial guess <Sx>= 0.0000 <Sy>= 0.0000 <Sz>= 0.5000 <S**2>= 0.7554 S= 0.5027
 Requested convergence on RMS density matrix=1.00D-08 within 128 cycles.
 Requested convergence on MAX density matrix=1.00D-06.
 Requested convergence on             energy=1.00D-06.
 No special actions if energy rises.
 SCF Done:  E(UM062X) =  -729.694619571     A.U. after    1 cycles
            NFock=  1  Conv=0.36D-08     -V/T= 2.0039
 <Sx>= 0.0000 <Sy>= 0.0000 <Sz>= 0.5000 <S**2>= 0.7554 S= 0.5027
 <L.S>= 0.000000000000E+00
 Annihilation of the first spin contaminant:
 S**2 before annihilation     0.7554,   after     0.7500
 DoSCS=F DFT=T ScalE2(SS,OS)=  1.000000  1.000000
 Range of M.O.s used for correlation:     1   687
 NBasis=   695 NAE=    60 NBE=    59 NFC=     0 NFV=     0
 NROrb=    687 NOA=    60 NOB=    59 NVA=   627 NVB=   628

 **** Warning!!: The largest alpha MO coefficient is  0.10238843D+03


 **** Warning!!: The largest beta MO coefficient is  0.10141234D+03

 Symmetrizing basis deriv contribution to polar:
 IMax=3 JMax=2 DiffMx= 0.00D+00
 G2DrvN: will do    16 centers at a time, making    2 passes.
 Calling FoFCou, ICntrl=  3107 FMM=F I1Cent=   0 AccDes= 0.00D+00.
 Calling FoFCou, ICntrl=  3107 FMM=F I1Cent=   0 AccDes= 0.00D+00.
