 Entering Gaussian System, Link 0=g16
 Input=rxn905.com
 Output=rxn905.log
 Initial command:
 /shared/centos7/gaussian/g16/l1.exe "/scratch/dinius.ab/QMscratch/Gau-20669.inp" -scrdir="/scratch/dinius.ab/QMscratch/"
 Default is to use a total of  20 processors:
                               20 via shared-memory
                                1 via Linda
 Entering Link 1 = /shared/centos7/gaussian/g16/l1.exe PID=     20670.
  
 Copyright (c) 1988,1990,1992,1993,1995,1998,2003,2009,2016,
            Gaussian, Inc.  All Rights Reserved.
  
 This is part of the Gaussian(R) 16 program.  It is based on
 the Gaussian(R) 09 system (copyright 2009, Gaussian, Inc.),
 the Gaussian(R) 03 system (copyright 2003, Gaussian, Inc.),
 the Gaussian(R) 98 system (copyright 1998, Gaussian, Inc.),
 the Gaussian(R) 94 system (copyright 1995, Gaussian, Inc.),
 the Gaussian 92(TM) system (copyright 1992, Gaussian, Inc.),
 the Gaussian 90(TM) system (copyright 1990, Gaussian, Inc.),
 the Gaussian 88(TM) system (copyright 1988, Gaussian, Inc.),
 the Gaussian 86(TM) system (copyright 1986, Carnegie Mellon
 University), and the Gaussian 82(TM) system (copyright 1983,
 Carnegie Mellon University). Gaussian is a federally registered
 trademark of Gaussian, Inc.
  
 This software contains proprietary and confidential information,
 including trade secrets, belonging to Gaussian, Inc.
  
 This software is provided under written license and may be
 used, copied, transmitted, or stored only in accord with that
 written license.
  
 The following legend is applicable only to US Government
 contracts under FAR:
  
                    RESTRICTED RIGHTS LEGEND
  
 Use, reproduction and disclosure by the US Government is
 subject to restrictions as set forth in subparagraphs (a)
 and (c) of the Commercial Computer Software - Restricted
 Rights clause in FAR 52.227-19.
  
 Gaussian, Inc.
 340 Quinnipiac St., Bldg. 40, Wallingford CT 06492
  
  
 ---------------------------------------------------------------
 Warning -- This program may not be used in any manner that
 competes with the business of Gaussian, Inc. or will provide
 assistance to any competitor of Gaussian, Inc.  The licensee
 of this program is prohibited from giving any competitor of
 Gaussian, Inc. access to this program.  By using this program,
 the user acknowledges that Gaussian, Inc. is engaged in the
 business of creating and licensing software in the field of
 computational chemistry and represents and warrants to the
 licensee that it is not a competitor of Gaussian, Inc. and that
 it will not use this program in any manner prohibited above.
 ---------------------------------------------------------------
  

 Cite this work as:
 Gaussian 16, Revision A.03,
 M. J. Frisch, G. W. Trucks, H. B. Schlegel, G. E. Scuseria, 
 M. A. Robb, J. R. Cheeseman, G. Scalmani, V. Barone, 
 G. A. Petersson, H. Nakatsuji, X. Li, M. Caricato, A. V. Marenich, 
 J. Bloino, B. G. Janesko, R. Gomperts, B. Mennucci, H. P. Hratchian, 
 J. V. Ortiz, A. F. Izmaylov, J. L. Sonnenberg, D. Williams-Young, 
 F. Ding, F. Lipparini, F. Egidi, J. Goings, B. Peng, A. Petrone, 
 T. Henderson, D. Ranasinghe, V. G. Zakrzewski, J. Gao, N. Rega, 
 G. Zheng, W. Liang, M. Hada, M. Ehara, K. Toyota, R. Fukuda, 
 J. Hasegawa, M. Ishida, T. Nakajima, Y. Honda, O. Kitao, H. Nakai, 
 T. Vreven, K. Throssell, J. A. Montgomery, Jr., J. E. Peralta, 
 F. Ogliaro, M. J. Bearpark, J. J. Heyd, E. N. Brothers, K. N. Kudin, 
 V. N. Staroverov, T. A. Keith, R. Kobayashi, J. Normand, 
 K. Raghavachari, A. P. Rendell, J. C. Burant, S. S. Iyengar, 
 J. Tomasi, M. Cossi, J. M. Millam, M. Klene, C. Adamo, R. Cammi, 
 J. W. Ochterski, R. L. Martin, K. Morokuma, O. Farkas, 
 J. B. Foresman, and D. J. Fox, Gaussian, Inc., Wallingford CT, 2016.
 
 ******************************************
 Gaussian 16:  EM64L-G16RevA.03 25-Dec-2016
                 5-Feb-2019 
 ******************************************
 ----------------------------------------------------------------------
 #m062x/6-311+g(2df,2p) Opt=(ModRedun,Loose,maxcycle=1000) Int(Grid=SG1
 ) freq
 ----------------------------------------------------------------------
 1/6=1000,7=-1,18=120,19=15,26=2,38=1/1,3;
 2/9=110,12=2,17=6,18=5,40=1/2;
 3/5=4,6=6,7=214,11=2,25=1,30=1,71=1,74=-55,75=1/1,2,3;
 4//1;
 5/5=2,38=5/2;
 6/7=2,8=2,9=2,10=2,28=1/1;
 7//1,2,3,16;
 1/6=1000,7=-1,18=20,19=15,26=2/3(2);
 2/9=110/2;
 99//99;
 2/9=110/2;
 3/5=4,6=6,7=214,11=2,25=1,30=1,71=1,74=-55,75=1/1,2,3;
 4/5=5,16=3,69=1/1;
 5/5=2,38=5/2;
 7//1,2,3,16;
 1/6=1000,7=-1,18=20,19=15,26=2/3(-5);
 2/9=110/2;
 6/7=2,8=2,9=2,10=2,19=2,28=1/1;
 99/9=1/99;
 -----
 Title
 -----
 Symbolic Z-matrix:
 Charge =  0 Multiplicity = 2
 C                    -3.40655  -11.8572  -0.35771 
 C                    -3.78149  -11.82974  -1.69417 
 C                    -2.90061  -10.70448   0.24833 
 H                    -3.5052   -12.77406   0.21737 
 C                    -2.75611  -9.49272  -0.46509 
 H                    -2.61658  -10.7681   1.29569 
 C                    -3.64972  -10.65022  -2.42476 
 H                    -4.175    -12.72378  -2.17008 
 C                    -3.14226  -9.48308  -1.82971 
 H                    -3.94732  -10.64825  -3.47124 
 C                    -2.24654  -8.29667   0.11283 
 C                    -3.01482  -8.30732  -2.58284 
 C                    -2.12788  -7.13827  -0.67218 
 C                    -2.51049  -7.14365  -2.00938 
 H                    -3.30748  -8.28954  -3.63035 
 H                    -1.73382  -6.21716  -0.24652 
 H                    -2.41452  -6.24013  -2.60568 
 C                    -1.81517  -8.23912   1.56072 
 H                    -2.65647  -8.52924   2.203 
 H                    -0.98537  -8.93955   1.71982 
 H                    -1.48562  -7.22974   1.88207 
 O                    -1.0714   -6.57295   2.48283 
 O                    -1.67017  -5.2558    2.33267 
 H                    -2.14311  -5.25184   3.18428 
 
 The following ModRedundant input section has been read:
 B      21      22 F                                                           
 B      19      21 F                                                           
 

 GradGradGradGradGradGradGradGradGradGradGradGradGradGradGradGradGradGrad
 Berny optimization.
 Initialization pass.
                           ----------------------------
                           !    Initial Parameters    !
                           ! (Angstroms and Degrees)  !
 --------------------------                            --------------------------
 ! Name  Definition              Value          Derivative Info.                !
 --------------------------------------------------------------------------------
 ! R1    R(1,2)                  1.3883         estimate D2E/DX2                !
 ! R2    R(1,3)                  1.3971         estimate D2E/DX2                !
 ! R3    R(1,4)                  1.0868         estimate D2E/DX2                !
 ! R4    R(2,7)                  1.3937         estimate D2E/DX2                !
 ! R5    R(2,8)                  1.0866         estimate D2E/DX2                !
 ! R6    R(3,5)                  1.4136         estimate D2E/DX2                !
 ! R7    R(3,6)                  1.0871         estimate D2E/DX2                !
 ! R8    R(5,9)                  1.4182         estimate D2E/DX2                !
 ! R9    R(5,11)                 1.4227         estimate D2E/DX2                !
 ! R10   R(7,9)                  1.4049         estimate D2E/DX2                !
 ! R11   R(7,10)                 1.088          estimate D2E/DX2                !
 ! R12   R(9,12)                 1.4021         estimate D2E/DX2                !
 ! R13   R(11,13)                1.4044         estimate D2E/DX2                !
 ! R14   R(11,18)                1.5119         estimate D2E/DX2                !
 ! R15   R(12,14)                1.3919         estimate D2E/DX2                !
 ! R16   R(12,15)                1.0878         estimate D2E/DX2                !
 ! R17   R(13,14)                1.3909         estimate D2E/DX2                !
 ! R18   R(13,16)                1.0885         estimate D2E/DX2                !
 ! R19   R(14,17)                1.0868         estimate D2E/DX2                !
 ! R20   R(18,19)                1.0975         estimate D2E/DX2                !
 ! R21   R(18,20)                1.0975         estimate D2E/DX2                !
 ! R22   R(18,21)                1.1094         estimate D2E/DX2                !
 ! R23   R(19,21)                1.7784         Frozen                          !
 ! R24   R(21,22)                0.9818         Frozen                          !
 ! R25   R(22,23)                1.4546         estimate D2E/DX2                !
 ! R26   R(23,24)                0.9741         estimate D2E/DX2                !
 ! A1    A(2,1,3)              119.9366         estimate D2E/DX2                !
 ! A2    A(2,1,4)              120.1035         estimate D2E/DX2                !
 ! A3    A(3,1,4)              119.9599         estimate D2E/DX2                !
 ! A4    A(1,2,7)              119.7245         estimate D2E/DX2                !
 ! A5    A(1,2,8)              120.2092         estimate D2E/DX2                !
 ! A6    A(7,2,8)              120.0663         estimate D2E/DX2                !
 ! A7    A(1,3,5)              121.6922         estimate D2E/DX2                !
 ! A8    A(1,3,6)              117.6624         estimate D2E/DX2                !
 ! A9    A(5,3,6)              120.6453         estimate D2E/DX2                !
 ! A10   A(3,5,9)              117.6199         estimate D2E/DX2                !
 ! A11   A(3,5,11)             123.5214         estimate D2E/DX2                !
 ! A12   A(9,5,11)             118.8586         estimate D2E/DX2                !
 ! A13   A(2,7,9)              121.0113         estimate D2E/DX2                !
 ! A14   A(2,7,10)             118.678          estimate D2E/DX2                !
 ! A15   A(9,7,10)             120.3107         estimate D2E/DX2                !
 ! A16   A(5,9,7)              120.0154         estimate D2E/DX2                !
 ! A17   A(5,9,12)             119.8541         estimate D2E/DX2                !
 ! A18   A(7,9,12)             120.1304         estimate D2E/DX2                !
 ! A19   A(5,11,13)            119.7778         estimate D2E/DX2                !
 ! A20   A(5,11,18)            121.5472         estimate D2E/DX2                !
 ! A21   A(13,11,18)           118.6735         estimate D2E/DX2                !
 ! A22   A(9,12,14)            120.8446         estimate D2E/DX2                !
 ! A23   A(9,12,15)            120.4323         estimate D2E/DX2                !
 ! A24   A(14,12,15)           118.7229         estimate D2E/DX2                !
 ! A25   A(11,13,14)           120.729          estimate D2E/DX2                !
 ! A26   A(11,13,16)           120.6635         estimate D2E/DX2                !
 ! A27   A(14,13,16)           118.6074         estimate D2E/DX2                !
 ! A28   A(12,14,13)           119.9347         estimate D2E/DX2                !
 ! A29   A(12,14,17)           120.0655         estimate D2E/DX2                !
 ! A30   A(13,14,17)           119.9997         estimate D2E/DX2                !
 ! A31   A(11,18,19)           109.3707         estimate D2E/DX2                !
 ! A32   A(11,18,20)           109.2849         estimate D2E/DX2                !
 ! A33   A(11,18,21)           113.3782         estimate D2E/DX2                !
 ! A34   A(19,18,20)           109.0289         estimate D2E/DX2                !
 ! A35   A(19,18,21)           107.3805         estimate D2E/DX2                !
 ! A36   A(20,18,21)           108.3058         estimate D2E/DX2                !
 ! A37   A(18,21,22)           155.6818         estimate D2E/DX2                !
 ! A38   A(21,22,23)           111.649          estimate D2E/DX2                !
 ! A39   A(22,23,24)            96.5045         estimate D2E/DX2                !
 ! D1    D(3,1,2,7)              0.0442         estimate D2E/DX2                !
 ! D2    D(3,1,2,8)            179.9675         estimate D2E/DX2                !
 ! D3    D(4,1,2,7)           -179.9029         estimate D2E/DX2                !
 ! D4    D(4,1,2,8)              0.0203         estimate D2E/DX2                !
 ! D5    D(2,1,3,5)              0.0209         estimate D2E/DX2                !
 ! D6    D(2,1,3,6)           -179.8714         estimate D2E/DX2                !
 ! D7    D(4,1,3,5)            179.9682         estimate D2E/DX2                !
 ! D8    D(4,1,3,6)              0.0759         estimate D2E/DX2                !
 ! D9    D(1,2,7,9)             -0.0225         estimate D2E/DX2                !
 ! D10   D(1,2,7,10)           179.9091         estimate D2E/DX2                !
 ! D11   D(8,2,7,9)           -179.9459         estimate D2E/DX2                !
 ! D12   D(8,2,7,10)            -0.0143         estimate D2E/DX2                !
 ! D13   D(1,3,5,9)             -0.1046         estimate D2E/DX2                !
 ! D14   D(1,3,5,11)           179.9647         estimate D2E/DX2                !
 ! D15   D(6,3,5,9)            179.7845         estimate D2E/DX2                !
 ! D16   D(6,3,5,11)            -0.1462         estimate D2E/DX2                !
 ! D17   D(3,5,9,7)              0.1246         estimate D2E/DX2                !
 ! D18   D(3,5,9,12)          -179.7995         estimate D2E/DX2                !
 ! D19   D(11,5,9,7)          -179.9414         estimate D2E/DX2                !
 ! D20   D(11,5,9,12)            0.1346         estimate D2E/DX2                !
 ! D21   D(3,5,11,13)          179.5643         estimate D2E/DX2                !
 ! D22   D(3,5,11,18)            0.017          estimate D2E/DX2                !
 ! D23   D(9,5,11,13)           -0.3656         estimate D2E/DX2                !
 ! D24   D(9,5,11,18)         -179.9129         estimate D2E/DX2                !
 ! D25   D(2,7,9,5)             -0.0641         estimate D2E/DX2                !
 ! D26   D(2,7,9,12)           179.8597         estimate D2E/DX2                !
 ! D27   D(10,7,9,5)          -179.9946         estimate D2E/DX2                !
 ! D28   D(10,7,9,12)           -0.0708         estimate D2E/DX2                !
 ! D29   D(5,9,12,14)            0.1018         estimate D2E/DX2                !
 ! D30   D(5,9,12,15)          179.9583         estimate D2E/DX2                !
 ! D31   D(7,9,12,14)         -179.8222         estimate D2E/DX2                !
 ! D32   D(7,9,12,15)            0.0344         estimate D2E/DX2                !
 ! D33   D(5,11,13,14)           0.3678         estimate D2E/DX2                !
 ! D34   D(5,11,13,16)        -179.6006         estimate D2E/DX2                !
 ! D35   D(18,11,13,14)        179.928          estimate D2E/DX2                !
 ! D36   D(18,11,13,16)         -0.0404         estimate D2E/DX2                !
 ! D37   D(5,11,18,19)         -57.447          estimate D2E/DX2                !
 ! D38   D(5,11,18,20)          61.8392         estimate D2E/DX2                !
 ! D39   D(5,11,18,21)        -177.245          estimate D2E/DX2                !
 ! D40   D(13,11,18,19)        123.0009         estimate D2E/DX2                !
 ! D41   D(13,11,18,20)       -117.7129         estimate D2E/DX2                !
 ! D42   D(13,11,18,21)          3.2029         estimate D2E/DX2                !
 ! D43   D(9,12,14,13)          -0.1067         estimate D2E/DX2                !
 ! D44   D(9,12,14,17)         179.8268         estimate D2E/DX2                !
 ! D45   D(15,12,14,13)       -179.9656         estimate D2E/DX2                !
 ! D46   D(15,12,14,17)         -0.0321         estimate D2E/DX2                !
 ! D47   D(11,13,14,12)         -0.1304         estimate D2E/DX2                !
 ! D48   D(11,13,14,17)        179.936          estimate D2E/DX2                !
 ! D49   D(16,13,14,12)        179.8386         estimate D2E/DX2                !
 ! D50   D(16,13,14,17)         -0.095          estimate D2E/DX2                !
 ! D51   D(11,18,21,22)       -168.3979         estimate D2E/DX2                !
 ! D52   D(19,18,21,22)         70.6755         estimate D2E/DX2                !
 ! D53   D(20,18,21,22)        -46.9317         estimate D2E/DX2                !
 ! D54   D(18,21,22,23)       -151.2279         estimate D2E/DX2                !
 ! D55   D(21,22,23,24)        108.3705         estimate D2E/DX2                !
 --------------------------------------------------------------------------------
 Trust Radius=3.00D-01 FncErr=1.00D-05 GrdErr=1.00D-04 EigMax=2.50D+02 EigMin=1.00D-04
 Number of steps in this run=    144 maximum allowed number of steps=    144.
 GradGradGradGradGradGradGradGradGradGradGradGradGradGradGradGradGradGrad

                          Input orientation:                          
 ---------------------------------------------------------------------
 Center     Atomic      Atomic             Coordinates (Angstroms)
 Number     Number       Type             X           Y           Z
 ---------------------------------------------------------------------
      1          6           0       -3.406550  -11.857200   -0.357710
      2          6           0       -3.781490  -11.829740   -1.694170
      3          6           0       -2.900610  -10.704480    0.248330
      4          1           0       -3.505200  -12.774060    0.217370
      5          6           0       -2.756110   -9.492720   -0.465090
      6          1           0       -2.616580  -10.768100    1.295690
      7          6           0       -3.649720  -10.650220   -2.424760
      8          1           0       -4.175000  -12.723780   -2.170080
      9          6           0       -3.142260   -9.483080   -1.829710
     10          1           0       -3.947320  -10.648250   -3.471240
     11          6           0       -2.246540   -8.296670    0.112830
     12          6           0       -3.014820   -8.307320   -2.582840
     13          6           0       -2.127880   -7.138270   -0.672180
     14          6           0       -2.510490   -7.143650   -2.009380
     15          1           0       -3.307480   -8.289540   -3.630350
     16          1           0       -1.733820   -6.217160   -0.246520
     17          1           0       -2.414520   -6.240130   -2.605680
     18          6           0       -1.815170   -8.239120    1.560720
     19          1           0       -2.656470   -8.529240    2.203000
     20          1           0       -0.985370   -8.939550    1.719820
     21          1           0       -1.485620   -7.229740    1.882070
     22          8           0       -1.071400   -6.572950    2.482830
     23          8           0       -1.670170   -5.255800    2.332670
     24          1           0       -2.143110   -5.251840    3.184280
 ---------------------------------------------------------------------
                    Distance matrix (angstroms):
                    1          2          3          4          5
     1  C    0.000000
     2  C    1.388330   0.000000
     3  C    1.397148   2.411528   0.000000
     4  H    1.086776   2.149898   2.156304   0.000000
     5  C    2.454663   2.832614   1.413581   3.434251   0.000000
     6  H    2.131648   3.379846   1.087053   2.444646   2.178625
     7  C    2.405957   1.393697   2.776602   3.392998   2.445128
     8  H    2.150851   1.086576   3.398580   2.480137   3.919182
     9  C    2.805901   2.435939   2.422491   3.892661   1.418236
    10  H    3.383498   2.140420   3.864449   4.280232   3.433827
    11  C    3.774176   4.254868   2.498743   4.652115   1.422740
    12  C    4.207886   3.712810   3.711461   5.294659   2.440690
    13  C    4.899203   5.078265   3.763284   5.869450   2.445607
    14  C    5.074297   4.865618   4.234260   6.135909   2.821930
    15  H    4.842333   4.062819   4.587116   5.912272   3.430819
    16  H    5.883914   6.147333   4.662866   6.807784   3.438334
    17  H    6.130984   5.826079   5.320909   7.200794   3.908728
    18  C    4.393560   5.230036   2.996422   5.022596   2.561403
    19  H    4.265580   5.229427   2.934622   4.762517   2.838472
    20  H    4.323300   5.275113   2.991388   4.828081   2.866243
    21  H    5.488167   6.262628   4.092080   6.131021   3.499198
    22  O    6.437771   7.240563   5.040688   7.036296   4.478118
    23  O    7.337005   7.993110   5.962094   8.022846   5.192130
    24  H    7.600839   8.351786   6.238982   8.200100   5.628386
                    6          7          8          9         10
     6  H    0.000000
     7  C    3.863033   0.000000
     8  H    4.273748   2.154166   0.000000
     9  C    3.419904   1.404926   3.418266   0.000000
    10  H    4.950642   1.087975   2.460220   2.168032   0.000000
    11  C    2.764788   3.734632   5.341342   2.446088   4.611739
    12  C    4.610534   2.432543   4.584922   1.402090   2.671847
    13  C    4.157765   4.209671   6.134519   2.804813   4.844075
    14  C    4.906259   3.710312   5.825313   2.429886   4.060017
    15  H    5.557560   2.672711   4.748417   2.166596   2.449127
    16  H    4.885564   5.297870   7.210794   3.893126   5.910411
    17  H    5.980303   4.583377   6.732515   3.412984   4.746598
    18  C    2.666128   5.006299   6.292841   3.847547   5.972486
    19  H    2.416050   5.186643   6.246913   4.172356   6.193020
    20  H    2.486831   5.215620   6.294876   4.188886   6.216101
    21  H    3.760705   5.910313   7.337381   4.647506   6.812056
    22  O    4.625599   6.881592   8.313520   5.599582   7.767235
    23  O    5.688275   7.459995   9.073018   6.112475   8.243137
    24  H    5.849792   7.929294   9.414225   6.636399   8.756276
                   11         12         13         14         15
    11  C    0.000000
    12  C    2.803035   0.000000
    13  C    1.404354   2.409141   0.000000
    14  C    2.429588   1.391881   1.390871   0.000000
    15  H    3.890635   1.087770   3.386392   2.139112   0.000000
    16  H    2.171722   3.386461   1.088537   2.137586   4.268661
    17  H    3.412898   2.152709   2.151102   1.086799   2.459148
    18  C    1.511879   4.314267   2.509084   3.798571   5.401550
    19  H    2.142648   4.804365   3.237416   4.436814   5.874457
    20  H    2.141556   4.799090   3.204934   4.411143   5.868477
    21  H    2.201715   4.840976   2.635348   4.025066   5.901620
    22  O    3.157383   5.696133   3.374881   4.751487   6.731843
    23  O    3.808777   5.939873   3.575236   4.808691   6.887813
    24  H    4.326141   6.584490   4.293150   5.539677   7.551328
                   16         17         18         19         20
    16  H    0.000000
    17  H    2.455507   0.000000
    18  C    2.713127   4.659836   0.000000
    19  H    3.492441   5.331226   1.097488   0.000000
    20  H    3.440651   5.295214   1.097489   1.787286   0.000000
    21  H    2.370193   4.688505   1.109377   1.778366   1.788861
    22  O    2.831031   5.273298   2.044408   2.533342   2.488048
    23  O    2.753268   5.090212   3.084985   3.421259   3.796650
    24  H    3.587443   5.879967   3.415748   3.459451   4.133305
                   21         22         23         24
    21  H    0.000000
    22  O    0.981766   0.000000
    23  O    2.033110   1.454633   0.000000
    24  H    2.457668   1.840089   0.974129   0.000000
 Stoichiometry    C11H11O2(2)
 Framework group  C1[X(C11H11O2)]
 Deg. of freedom    66
 Full point group                 C1      NOp   1
 Largest Abelian subgroup         C1      NOp   1
 Largest concise Abelian subgroup C1      NOp   1
                         Standard orientation:                         
 ---------------------------------------------------------------------
 Center     Atomic      Atomic             Coordinates (Angstroms)
 Number     Number       Type             X           Y           Z
 ---------------------------------------------------------------------
      1          6           0       -2.691915   -1.814121    0.074582
      2          6           0       -3.556336   -0.729474    0.136041
      3          6           0       -1.313592   -1.603119   -0.013319
      4          1           0       -3.085796   -2.826823    0.093878
      5          6           0       -0.761814   -0.301988   -0.041737
      6          1           0       -0.671069   -2.478632   -0.061528
      7          6           0       -3.042789    0.565869    0.108684
      8          1           0       -4.629071   -0.888457    0.203947
      9          6           0       -1.659399    0.794330    0.020072
     10          1           0       -3.735679    1.403323    0.156279
     11          6           0        0.634260   -0.042342   -0.129782
     12          6           0       -1.163000    2.105283   -0.009078
     13          6           0        1.096465    1.283390   -0.161621
     14          6           0        0.204382    2.348733   -0.100342
     15          1           0       -1.842979    2.953068    0.037109
     16          1           0        2.160975    1.498559   -0.235333
     17          1           0        0.575144    3.370041   -0.124826
     18          6           0        1.644654   -1.164762   -0.200863
     19          1           0        1.530869   -1.813120    0.677296
     20          1           0        1.466123   -1.756263   -1.107912
     21          1           0        2.695797   -0.810435   -0.217216
     22          8           0        3.667320   -0.896607   -0.329384
     23          8           0        4.389714    0.057615    0.497395
     24          1           0        4.733911   -0.590129    1.138397
 ---------------------------------------------------------------------
 Rotational constants (GHZ):           1.6043917           0.4588476           0.3621588
 Standard basis: 6-311+G(2df,2p) (5D, 7F)
 There are   606 symmetry adapted cartesian basis functions of A   symmetry.
 There are   541 symmetry adapted basis functions of A   symmetry.
   541 basis functions,   797 primitive gaussians,   606 cartesian basis functions
    47 alpha electrons       46 beta electrons
       nuclear repulsion energy       727.6423313620 Hartrees.
 NAtoms=   24 NActive=   24 NUniq=   24 SFac= 1.00D+00 NAtFMM=   60 NAOKFM=F Big=F
 Integral buffers will be    131072 words long.
 Raffenetti 2 integral format.
 Two-electron integral symmetry is turned on.
 One-electron integrals computed using PRISM.
 NBasis=   541 RedAO= T EigKep=  1.14D-06  NBF=   541
 NBsUse=   538 1.00D-06 EigRej=  6.42D-07 NBFU=   538
 ExpMin= 4.38D-02 ExpMax= 8.59D+03 ExpMxC= 1.30D+03 IAcc=2 IRadAn=         4 AccDes= 0.00D+00
 Harris functional with IExCor= 1009 and IRadAn=       4 diagonalized for initial guess.
 HarFok:  IExCor= 1009 AccDes= 0.00D+00 IRadAn=         4 IDoV= 1 UseB2=F ITyADJ=14
 ICtDFT=  3500011 ScaDFX=  1.000000  1.000000  1.000000  1.000000
 FoFCou: FMM=F IPFlag=           0 FMFlag=      100000 FMFlg1=           0
         NFxFlg=           0 DoJE=T BraDBF=F KetDBF=T FulRan=T
         wScrn=  0.000000 ICntrl=       500 IOpCl=  0 I1Cent=   200000004 NGrid=           0
         NMat0=    1 NMatS0=      1 NMatT0=    0 NMatD0=    1 NMtDS0=    0 NMtDT0=    0
 Petite list used in FoFCou.
 Initial guess <Sx>= 0.0000 <Sy>= 0.0000 <Sz>= 0.5000 <S**2>= 0.7500 S= 0.5000
 Requested convergence on RMS density matrix=1.00D-08 within 128 cycles.
 Requested convergence on MAX density matrix=1.00D-06.
 Requested convergence on             energy=1.00D-06.
 No special actions if energy rises.
 SCF Done:  E(UM062X) =  -575.951561157     A.U. after   20 cycles
            NFock= 20  Conv=0.67D-08     -V/T= 2.0033
 <Sx>= 0.0000 <Sy>= 0.0000 <Sz>= 0.5000 <S**2>= 0.7568 S= 0.5034
 <L.S>= 0.000000000000E+00
 Annihilation of the first spin contaminant:
 S**2 before annihilation     0.7568,   after     0.7500

 **********************************************************************

            Population analysis using the SCF density.

 **********************************************************************

 Orbital symmetries:
 Alpha Orbitals:
       Occupied  (A) (A) (A) (A) (A) (A) (A) (A) (A) (A) (A) (A)
                 (A) (A) (A) (A) (A) (A) (A) (A) (A) (A) (A) (A)
                 (A) (A) (A) (A) (A) (A) (A) (A) (A) (A) (A) (A)
                 (A) (A) (A) (A) (A) (A) (A) (A) (A) (A) (A)
       Virtual   (A) (A) (A) (A) (A) (A) (A) (A) (A) (A) (A) (A)
                 (A) (A) (A) (A) (A) (A) (A) (A) (A) (A) (A) (A)
                 (A) (A) (A) (A) (A) (A) (A) (A) (A) (A) (A) (A)
                 (A) (A) (A) (A) (A) (A) (A) (A) (A) (A) (A) (A)
                 (A) (A) (A) (A) (A) (A) (A) (A) (A) (A) (A) (A)
                 (A) (A) (A) (A) (A) (A) (A) (A) (A) (A) (A) (A)
                 (A) (A) (A) (A) (A) (A) (A) (A) (A) (A) (A) (A)
                 (A) (A) (A) (A) (A) (A) (A) (A) (A) (A) (A) (A)
                 (A) (A) (A) (A) (A) (A) (A) (A) (A) (A) (A) (A)
                 (A) (A) (A) (A) (A) (A) (A) (A) (A) (A) (A) (A)
                 (A) (A) (A) (A) (A) (A) (A) (A) (A) (A) (A) (A)
                 (A) (A) (A) (A) (A) (A) (A) (A) (A) (A) (A) (A)
                 (A) (A) (A) (A) (A) (A) (A) (A) (A) (A) (A) (A)
                 (A) (A) (A) (A) (A) (A) (A) (A) (A) (A) (A) (A)
                 (A) (A) (A) (A) (A) (A) (A) (A) (A) (A) (A) (A)
                 (A) (A) (A) (A) (A) (A) (A) (A) (A) (A) (A) (A)
                 (A) (A) (A) (A) (A) (A) (A) (A) (A) (A) (A) (A)
                 (A) (A) (A) (A) (A) (A) (A) (A) (A) (A) (A) (A)
                 (A) (A) (A) (A) (A) (A) (A) (A) (A) (A) (A) (A)
                 (A) (A) (A) (A) (A) (A) (A) (A) (A) (A) (A) (A)
                 (A) (A) (A) (A) (A) (A) (A) (A) (A) (A) (A) (A)
                 (A) (A) (A) (A) (A) (A) (A) (A) (A) (A) (A) (A)
                 (A) (A) (A) (A) (A) (A) (A) (A) (A) (A) (A) (A)
                 (A) (A) (A) (A) (A) (A) (A) (A) (A) (A) (A) (A)
                 (A) (A) (A) (A) (A) (A) (A) (A) (A) (A) (A) (A)
                 (A) (A) (A) (A) (A) (A) (A) (A) (A) (A) (A) (A)
                 (A) (A) (A) (A) (A) (A) (A) (A) (A) (A) (A) (A)
                 (A) (A) (A) (A) (A) (A) (A) (A) (A) (A) (A) (A)
                 (A) (A) (A) (A) (A) (A) (A) (A) (A) (A) (A) (A)
                 (A) (A) (A) (A) (A) (A) (A) (A) (A) (A) (A) (A)
                 (A) (A) (A) (A) (A) (A) (A) (A) (A) (A) (A) (A)
                 (A) (A) (A) (A) (A) (A) (A) (A) (A) (A) (A) (A)
                 (A) (A) (A) (A) (A) (A) (A) (A) (A) (A) (A) (A)
                 (A) (A) (A) (A) (A) (A) (A) (A) (A) (A) (A) (A)
                 (A) (A) (A) (A) (A) (A) (A) (A) (A) (A) (A) (A)
                 (A) (A) (A) (A) (A) (A) (A) (A) (A) (A) (A) (A)
                 (A) (A) (A) (A) (A) (A) (A) (A) (A) (A) (A) (A)
                 (A) (A) (A) (A) (A) (A) (A) (A) (A) (A) (A) (A)
                 (A) (A) (A) (A) (A) (A) (A) (A) (A) (A) (A) (A)
                 (A) (A) (A) (A) (A) (A) (A) (A) (A) (A) (A) (A)
                 (A) (A) (A) (A) (A) (A) (A) (A) (A) (A) (A)
 Beta  Orbitals:
       Occupied  (A) (A) (A) (A) (A) (A) (A) (A) (A) (A) (A) (A)
                 (A) (A) (A) (A) (A) (A) (A) (A) (A) (A) (A) (A)
                 (A) (A) (A) (A) (A) (A) (A) (A) (A) (A) (A) (A)
                 (A) (A) (A) (A) (A) (A) (A) (A) (A) (A)
       Virtual   (A) (A) (A) (A) (A) (A) (A) (A) (A) (A) (A) (A)
                 (A) (A) (A) (A) (A) (A) (A) (A) (A) (A) (A) (A)
                 (A) (A) (A) (A) (A) (A) (A) (A) (A) (A) (A) (A)
                 (A) (A) (A) (A) (A) (A) (A) (A) (A) (A) (A) (A)
                 (A) (A) (A) (A) (A) (A) (A) (A) (A) (A) (A) (A)
                 (A) (A) (A) (A) (A) (A) (A) (A) (A) (A) (A) (A)
                 (A) (A) (A) (A) (A) (A) (A) (A) (A) (A) (A) (A)
                 (A) (A) (A) (A) (A) (A) (A) (A) (A) (A) (A) (A)
                 (A) (A) (A) (A) (A) (A) (A) (A) (A) (A) (A) (A)
                 (A) (A) (A) (A) (A) (A) (A) (A) (A) (A) (A) (A)
                 (A) (A) (A) (A) (A) (A) (A) (A) (A) (A) (A) (A)
                 (A) (A) (A) (A) (A) (A) (A) (A) (A) (A) (A) (A)
                 (A) (A) (A) (A) (A) (A) (A) (A) (A) (A) (A) (A)
                 (A) (A) (A) (A) (A) (A) (A) (A) (A) (A) (A) (A)
                 (A) (A) (A) (A) (A) (A) (A) (A) (A) (A) (A) (A)
                 (A) (A) (A) (A) (A) (A) (A) (A) (A) (A) (A) (A)
                 (A) (A) (A) (A) (A) (A) (A) (A) (A) (A) (A) (A)
                 (A) (A) (A) (A) (A) (A) (A) (A) (A) (A) (A) (A)
                 (A) (A) (A) (A) (A) (A) (A) (A) (A) (A) (A) (A)
                 (A) (A) (A) (A) (A) (A) (A) (A) (A) (A) (A) (A)
                 (A) (A) (A) (A) (A) (A) (A) (A) (A) (A) (A) (A)
                 (A) (A) (A) (A) (A) (A) (A) (A) (A) (A) (A) (A)
                 (A) (A) (A) (A) (A) (A) (A) (A) (A) (A) (A) (A)
                 (A) (A) (A) (A) (A) (A) (A) (A) (A) (A) (A) (A)
                 (A) (A) (A) (A) (A) (A) (A) (A) (A) (A) (A) (A)
                 (A) (A) (A) (A) (A) (A) (A) (A) (A) (A) (A) (A)
                 (A) (A) (A) (A) (A) (A) (A) (A) (A) (A) (A) (A)
                 (A) (A) (A) (A) (A) (A) (A) (A) (A) (A) (A) (A)
                 (A) (A) (A) (A) (A) (A) (A) (A) (A) (A) (A) (A)
                 (A) (A) (A) (A) (A) (A) (A) (A) (A) (A) (A) (A)
                 (A) (A) (A) (A) (A) (A) (A) (A) (A) (A) (A) (A)
                 (A) (A) (A) (A) (A) (A) (A) (A) (A) (A) (A) (A)
                 (A) (A) (A) (A) (A) (A) (A) (A) (A) (A) (A) (A)
                 (A) (A) (A) (A) (A) (A) (A) (A) (A) (A) (A) (A)
                 (A) (A) (A) (A) (A) (A) (A) (A) (A) (A) (A) (A)
                 (A) (A) (A) (A) (A) (A) (A) (A) (A) (A) (A) (A)
                 (A) (A) (A) (A) (A) (A) (A) (A) (A) (A) (A) (A)
                 (A) (A) (A) (A) (A) (A) (A) (A) (A) (A) (A) (A)
                 (A) (A) (A) (A) (A) (A) (A) (A) (A) (A) (A) (A)
                 (A) (A) (A) (A) (A) (A) (A) (A) (A) (A) (A) (A)
                 (A) (A) (A) (A) (A) (A) (A) (A) (A) (A) (A) (A)
 The electronic state is 2-A.
 Alpha  occ. eigenvalues --  -19.70227 -19.69476 -10.56498 -10.55891 -10.55593
 Alpha  occ. eigenvalues --  -10.55445 -10.55196 -10.55044 -10.54978 -10.54775
 Alpha  occ. eigenvalues --  -10.54640 -10.54598 -10.54510  -1.27098  -1.05849
 Alpha  occ. eigenvalues --   -0.99033  -0.93131  -0.89337  -0.84688  -0.83631
 Alpha  occ. eigenvalues --   -0.78695  -0.71813  -0.70046  -0.68112  -0.63442
 Alpha  occ. eigenvalues --   -0.60593  -0.58984  -0.58343  -0.56857  -0.53966
 Alpha  occ. eigenvalues --   -0.51980  -0.50977  -0.50777  -0.48959  -0.48276
 Alpha  occ. eigenvalues --   -0.46342  -0.46208  -0.43799  -0.43073  -0.40392
 Alpha  occ. eigenvalues --   -0.39813  -0.39566  -0.39013  -0.34398  -0.30873
 Alpha  occ. eigenvalues --   -0.30667  -0.26369
 Alpha virt. eigenvalues --   -0.02930   0.00704   0.00926   0.01669   0.01853
 Alpha virt. eigenvalues --    0.03172   0.03363   0.03892   0.04550   0.05470
 Alpha virt. eigenvalues --    0.05874   0.05990   0.07201   0.07407   0.08240
 Alpha virt. eigenvalues --    0.08924   0.09063   0.09879   0.10448   0.11027
 Alpha virt. eigenvalues --    0.11455   0.12175   0.13339   0.13764   0.14123
 Alpha virt. eigenvalues --    0.14695   0.15011   0.15568   0.15981   0.16437
 Alpha virt. eigenvalues --    0.17123   0.17970   0.18276   0.18662   0.18836
 Alpha virt. eigenvalues --    0.19159   0.19802   0.20322   0.20990   0.21184
 Alpha virt. eigenvalues --    0.21919   0.22306   0.22488   0.23039   0.23151
 Alpha virt. eigenvalues --    0.23382   0.23748   0.24779   0.25027   0.25751
 Alpha virt. eigenvalues --    0.26214   0.26405   0.27011   0.27885   0.28634
 Alpha virt. eigenvalues --    0.28764   0.29218   0.29622   0.30247   0.31237
 Alpha virt. eigenvalues --    0.31703   0.32086   0.32511   0.33441   0.34489
 Alpha virt. eigenvalues --    0.35265   0.35537   0.36132   0.37230   0.37846
 Alpha virt. eigenvalues --    0.38095   0.40857   0.42752   0.44548   0.46462
 Alpha virt. eigenvalues --    0.46882   0.49796   0.50374   0.51227   0.51817
 Alpha virt. eigenvalues --    0.52915   0.53633   0.54187   0.54613   0.55064
 Alpha virt. eigenvalues --    0.55498   0.56356   0.56465   0.57611   0.57941
 Alpha virt. eigenvalues --    0.58228   0.59787   0.60106   0.60483   0.60960
 Alpha virt. eigenvalues --    0.61662   0.62330   0.62471   0.64204   0.64432
 Alpha virt. eigenvalues --    0.65728   0.67193   0.67643   0.67831   0.68139
 Alpha virt. eigenvalues --    0.68512   0.68737   0.68996   0.69688   0.70031
 Alpha virt. eigenvalues --    0.71745   0.72356   0.72961   0.73665   0.73831
 Alpha virt. eigenvalues --    0.73961   0.74166   0.75544   0.75688   0.75855
 Alpha virt. eigenvalues --    0.77782   0.78382   0.79203   0.79968   0.80007
 Alpha virt. eigenvalues --    0.82006   0.82804   0.83818   0.84211   0.85483
 Alpha virt. eigenvalues --    0.85862   0.87716   0.88196   0.89522   0.89883
 Alpha virt. eigenvalues --    0.90368   0.91153   0.94022   0.94102   0.96126
 Alpha virt. eigenvalues --    0.96623   0.98175   0.98942   0.99865   1.01350
 Alpha virt. eigenvalues --    1.03084   1.03949   1.04065   1.05694   1.06533
 Alpha virt. eigenvalues --    1.06977   1.07985   1.09428   1.11422   1.11883
 Alpha virt. eigenvalues --    1.12580   1.14000   1.14201   1.14602   1.16140
 Alpha virt. eigenvalues --    1.17974   1.18697   1.19026   1.19581   1.20577
 Alpha virt. eigenvalues --    1.21681   1.22707   1.24169   1.25521   1.26367
 Alpha virt. eigenvalues --    1.27249   1.27756   1.28505   1.29966   1.30166
 Alpha virt. eigenvalues --    1.32385   1.32752   1.33236   1.34389   1.35525
 Alpha virt. eigenvalues --    1.36220   1.36440   1.37059   1.37663   1.38623
 Alpha virt. eigenvalues --    1.39720   1.41067   1.41250   1.41706   1.42926
 Alpha virt. eigenvalues --    1.43932   1.45009   1.45870   1.46496   1.48227
 Alpha virt. eigenvalues --    1.48692   1.51382   1.52664   1.53168   1.54557
 Alpha virt. eigenvalues --    1.55256   1.56632   1.58095   1.58728   1.61715
 Alpha virt. eigenvalues --    1.63767   1.66410   1.67720   1.70197   1.71032
 Alpha virt. eigenvalues --    1.73105   1.74143   1.75788   1.75960   1.76848
 Alpha virt. eigenvalues --    1.77620   1.78785   1.80304   1.82565   1.85456
 Alpha virt. eigenvalues --    1.88169   1.89182   1.93301   1.93609   1.94151
 Alpha virt. eigenvalues --    2.02867   2.03704   2.05644   2.06167   2.11545
 Alpha virt. eigenvalues --    2.14238   2.16107   2.20527   2.28552   2.30812
 Alpha virt. eigenvalues --    2.35697   2.38478   2.41354   2.44891   2.48168
 Alpha virt. eigenvalues --    2.54391   2.55704   2.57173   2.59226   2.62410
 Alpha virt. eigenvalues --    2.63648   2.64401   2.67968   2.68957   2.69515
 Alpha virt. eigenvalues --    2.70129   2.73162   2.74792   2.75337   2.76467
 Alpha virt. eigenvalues --    2.76753   2.77102   2.77413   2.78123   2.79426
 Alpha virt. eigenvalues --    2.80427   2.82087   2.82769   2.83648   2.83997
 Alpha virt. eigenvalues --    2.84790   2.85238   2.85905   2.86799   2.87309
 Alpha virt. eigenvalues --    2.87485   2.88471   2.89683   2.90249   2.90637
 Alpha virt. eigenvalues --    2.90804   2.92356   2.92768   2.93875   2.96632
 Alpha virt. eigenvalues --    2.99412   2.99575   3.02777   3.03296   3.04350
 Alpha virt. eigenvalues --    3.05960   3.08091   3.09458   3.11701   3.11818
 Alpha virt. eigenvalues --    3.12677   3.13280   3.13583   3.14135   3.14796
 Alpha virt. eigenvalues --    3.15150   3.17319   3.17560   3.17746   3.19649
 Alpha virt. eigenvalues --    3.20210   3.20736   3.22032   3.22683   3.23551
 Alpha virt. eigenvalues --    3.24430   3.25753   3.27373   3.27812   3.28376
 Alpha virt. eigenvalues --    3.30108   3.31230   3.31472   3.33052   3.33510
 Alpha virt. eigenvalues --    3.33902   3.34779   3.38809   3.39162   3.40551
 Alpha virt. eigenvalues --    3.41501   3.43002   3.44547   3.45054   3.46626
 Alpha virt. eigenvalues --    3.47022   3.48921   3.49769   3.51009   3.51534
 Alpha virt. eigenvalues --    3.52991   3.53644   3.54659   3.54866   3.55981
 Alpha virt. eigenvalues --    3.56258   3.56922   3.62713   3.65315   3.65600
 Alpha virt. eigenvalues --    3.66070   3.67365   3.68710   3.69120   3.70279
 Alpha virt. eigenvalues --    3.73350   3.73479   3.74185   3.75127   3.75512
 Alpha virt. eigenvalues --    3.76324   3.77433   3.78410   3.78809   3.79819
 Alpha virt. eigenvalues --    3.83542   3.84411   3.85320   3.86521   3.88233
 Alpha virt. eigenvalues --    3.89331   3.93532   3.93757   3.95540   3.96287
 Alpha virt. eigenvalues --    3.96991   3.97967   3.99249   4.01182   4.02384
 Alpha virt. eigenvalues --    4.05688   4.06611   4.07714   4.10278   4.11276
 Alpha virt. eigenvalues --    4.12044   4.13254   4.15625   4.16284   4.17155
 Alpha virt. eigenvalues --    4.18931   4.20813   4.23179   4.24164   4.26123
 Alpha virt. eigenvalues --    4.27762   4.28911   4.30540   4.31324   4.33256
 Alpha virt. eigenvalues --    4.35149   4.35731   4.36111   4.37090   4.38214
 Alpha virt. eigenvalues --    4.38358   4.38934   4.41811   4.42289   4.43260
 Alpha virt. eigenvalues --    4.45931   4.46827   4.47326   4.48977   4.49747
 Alpha virt. eigenvalues --    4.51161   4.52100   4.54899   4.54940   4.57307
 Alpha virt. eigenvalues --    4.57838   4.59746   4.60263   4.60379   4.63979
 Alpha virt. eigenvalues --    4.65471   4.69781   4.72877   4.76659   4.77936
 Alpha virt. eigenvalues --    4.78386   4.79431   4.85683   4.87502   4.92647
 Alpha virt. eigenvalues --    4.94775   4.96110   4.96669   4.98010   5.07412
 Alpha virt. eigenvalues --    5.09060   5.11819   5.12538   5.15429   5.16859
 Alpha virt. eigenvalues --    5.17406   5.21503   5.23136   5.24434   5.25263
 Alpha virt. eigenvalues --    5.30021   5.32059   5.36204   5.45927   5.47078
 Alpha virt. eigenvalues --    5.49584   5.51110   5.51460   5.54043   5.57805
 Alpha virt. eigenvalues --    5.63339   5.66449   5.71020   5.72354   5.73071
 Alpha virt. eigenvalues --    5.75564   5.81340   5.83803   5.87608   5.89453
 Alpha virt. eigenvalues --    6.02831   6.11579   6.13901   6.41086   6.52696
 Alpha virt. eigenvalues --    6.62374   6.82590   6.87822   6.93258   7.05863
 Alpha virt. eigenvalues --    7.08946   7.23021   7.27985   7.35482   7.45614
 Alpha virt. eigenvalues --    7.66470   7.67196   7.98566  23.92201  24.20070
 Alpha virt. eigenvalues --   24.50397  24.58488  24.62570  24.65703  24.67065
 Alpha virt. eigenvalues --   24.76013  24.80522  25.07566  25.21802  49.98805
 Alpha virt. eigenvalues --   50.06865
  Beta  occ. eigenvalues --  -19.70087 -19.68419 -10.56508 -10.55853 -10.55441
  Beta  occ. eigenvalues --  -10.55190 -10.55041 -10.54977 -10.54880 -10.54775
  Beta  occ. eigenvalues --  -10.54638 -10.54586 -10.54507  -1.24885  -1.03084
  Beta  occ. eigenvalues --   -0.98913  -0.92997  -0.88844  -0.84641  -0.82830
  Beta  occ. eigenvalues --   -0.77516  -0.71635  -0.69863  -0.67026  -0.61468
  Beta  occ. eigenvalues --   -0.59667  -0.58614  -0.57685  -0.56598  -0.52151
  Beta  occ. eigenvalues --   -0.51620  -0.50698  -0.49392  -0.48651  -0.48009
  Beta  occ. eigenvalues --   -0.46139  -0.46028  -0.43590  -0.41414  -0.39818
  Beta  occ. eigenvalues --   -0.39727  -0.38847  -0.37758  -0.34323  -0.30643
  Beta  occ. eigenvalues --   -0.26371
  Beta virt. eigenvalues --   -0.06893  -0.02909   0.00739   0.00947   0.01692
  Beta virt. eigenvalues --    0.01908   0.03243   0.03421   0.03914   0.04662
  Beta virt. eigenvalues --    0.05605   0.05995   0.06055   0.07432   0.07505
  Beta virt. eigenvalues --    0.08399   0.08946   0.09140   0.09902   0.10672
  Beta virt. eigenvalues --    0.11031   0.11494   0.12362   0.13359   0.13775
  Beta virt. eigenvalues --    0.14149   0.14746   0.15151   0.15589   0.15980
  Beta virt. eigenvalues --    0.16415   0.17282   0.17984   0.18349   0.18695
  Beta virt. eigenvalues --    0.18875   0.19226   0.19845   0.20482   0.21075
  Beta virt. eigenvalues --    0.21534   0.22005   0.22360   0.22529   0.23085
  Beta virt. eigenvalues --    0.23315   0.23485   0.23820   0.24794   0.25036
  Beta virt. eigenvalues --    0.25842   0.26318   0.26526   0.27032   0.28059
  Beta virt. eigenvalues --    0.28768   0.28901   0.29288   0.29696   0.30442
  Beta virt. eigenvalues --    0.31451   0.32040   0.32172   0.32540   0.33478
  Beta virt. eigenvalues --    0.34579   0.35410   0.35633   0.36234   0.37278
  Beta virt. eigenvalues --    0.37959   0.38236   0.40905   0.42872   0.44792
  Beta virt. eigenvalues --    0.46707   0.47129   0.50125   0.50495   0.51385
  Beta virt. eigenvalues --    0.52050   0.53184   0.53758   0.54350   0.54544
  Beta virt. eigenvalues --    0.55260   0.55655   0.56418   0.56490   0.57745
  Beta virt. eigenvalues --    0.58179   0.58370   0.59883   0.60222   0.60585
  Beta virt. eigenvalues --    0.61115   0.61965   0.62596   0.62762   0.64231
  Beta virt. eigenvalues --    0.64490   0.65759   0.67206   0.67709   0.68036
  Beta virt. eigenvalues --    0.68195   0.68570   0.68931   0.69261   0.69757
  Beta virt. eigenvalues --    0.70132   0.71846   0.72398   0.73103   0.73774
  Beta virt. eigenvalues --    0.73869   0.74067   0.74221   0.75601   0.75787
  Beta virt. eigenvalues --    0.76014   0.77976   0.78725   0.79358   0.80058
  Beta virt. eigenvalues --    0.80653   0.82508   0.82912   0.83875   0.84465
  Beta virt. eigenvalues --    0.85545   0.85990   0.87914   0.88400   0.89646
  Beta virt. eigenvalues --    0.90108   0.90671   0.91432   0.94079   0.94315
  Beta virt. eigenvalues --    0.96277   0.96848   0.98623   0.99500   1.00085
  Beta virt. eigenvalues --    1.01634   1.03332   1.03972   1.04169   1.05844
  Beta virt. eigenvalues --    1.06833   1.07045   1.08147   1.09460   1.11536
  Beta virt. eigenvalues --    1.11950   1.12631   1.14152   1.14352   1.14882
  Beta virt. eigenvalues --    1.16263   1.18174   1.18867   1.19229   1.19771
  Beta virt. eigenvalues --    1.20777   1.21764   1.23147   1.24617   1.25864
  Beta virt. eigenvalues --    1.26739   1.27521   1.28022   1.28663   1.30133
  Beta virt. eigenvalues --    1.30661   1.32655   1.32950   1.33281   1.34410
  Beta virt. eigenvalues --    1.35610   1.36383   1.36472   1.37367   1.37740
  Beta virt. eigenvalues --    1.38796   1.39827   1.41147   1.41480   1.41874
  Beta virt. eigenvalues --    1.43216   1.43966   1.45093   1.46528   1.47254
  Beta virt. eigenvalues --    1.48297   1.48822   1.51424   1.52733   1.53452
  Beta virt. eigenvalues --    1.55137   1.55619   1.57259   1.58566   1.59078
  Beta virt. eigenvalues --    1.61975   1.64235   1.67063   1.67867   1.70277
  Beta virt. eigenvalues --    1.71132   1.73293   1.74376   1.75904   1.76064
  Beta virt. eigenvalues --    1.76943   1.77660   1.79137   1.80550   1.82675
  Beta virt. eigenvalues --    1.85774   1.88470   1.89416   1.93344   1.93891
  Beta virt. eigenvalues --    1.94325   2.02927   2.03887   2.05874   2.06460
  Beta virt. eigenvalues --    2.11768   2.14725   2.16770   2.21837   2.28688
  Beta virt. eigenvalues --    2.31224   2.36708   2.39216   2.42283   2.45873
  Beta virt. eigenvalues --    2.48236   2.54400   2.55813   2.57378   2.59186
  Beta virt. eigenvalues --    2.62459   2.63726   2.64477   2.68136   2.69155
  Beta virt. eigenvalues --    2.69649   2.70343   2.73416   2.74937   2.75351
  Beta virt. eigenvalues --    2.76678   2.76944   2.77249   2.77702   2.78427
  Beta virt. eigenvalues --    2.79520   2.80518   2.82097   2.82840   2.83662
  Beta virt. eigenvalues --    2.83998   2.84979   2.85131   2.85940   2.86922
  Beta virt. eigenvalues --    2.87311   2.87510   2.88475   2.89750   2.90623
  Beta virt. eigenvalues --    2.90712   2.90911   2.92379   2.92792   2.93905
  Beta virt. eigenvalues --    2.97013   2.99634   2.99734   3.02869   3.03476
  Beta virt. eigenvalues --    3.05001   3.06508   3.09378   3.10185   3.11760
  Beta virt. eigenvalues --    3.12056   3.13245   3.13618   3.13806   3.14345
  Beta virt. eigenvalues --    3.14987   3.15420   3.17484   3.17647   3.18034
  Beta virt. eigenvalues --    3.19833   3.20462   3.21097   3.22557   3.23027
  Beta virt. eigenvalues --    3.23690   3.24740   3.26083   3.27850   3.28316
  Beta virt. eigenvalues --    3.29231   3.31158   3.31520   3.31602   3.33590
  Beta virt. eigenvalues --    3.34268   3.34488   3.35276   3.39051   3.39488
  Beta virt. eigenvalues --    3.41118   3.41593   3.43188   3.44904   3.45331
  Beta virt. eigenvalues --    3.46946   3.47535   3.49342   3.49857   3.51068
  Beta virt. eigenvalues --    3.52018   3.53856   3.53957   3.54914   3.55341
  Beta virt. eigenvalues --    3.56642   3.57768   3.58565   3.63790   3.65467
  Beta virt. eigenvalues --    3.66298   3.67382   3.67873   3.68888   3.69490
  Beta virt. eigenvalues --    3.70458   3.73447   3.74284   3.74469   3.75262
  Beta virt. eigenvalues --    3.76044   3.76502   3.77568   3.78719   3.79278
  Beta virt. eigenvalues --    3.80101   3.83752   3.85064   3.86410   3.87062
  Beta virt. eigenvalues --    3.88474   3.89460   3.94111   3.94445   3.95817
  Beta virt. eigenvalues --    3.97517   3.97992   3.98762   3.99400   4.02767
  Beta virt. eigenvalues --    4.03080   4.06078   4.07113   4.07766   4.10510
  Beta virt. eigenvalues --    4.11691   4.12640   4.13539   4.16394   4.16418
  Beta virt. eigenvalues --    4.17838   4.19211   4.20940   4.23613   4.24430
  Beta virt. eigenvalues --    4.26759   4.28059   4.29459   4.31396   4.31481
  Beta virt. eigenvalues --    4.33644   4.35443   4.36077   4.36225   4.37479
  Beta virt. eigenvalues --    4.38478   4.38895   4.39038   4.42039   4.42509
  Beta virt. eigenvalues --    4.43440   4.46188   4.47033   4.47440   4.49181
  Beta virt. eigenvalues --    4.49969   4.51242   4.52216   4.54920   4.55236
  Beta virt. eigenvalues --    4.57439   4.58123   4.59912   4.60452   4.60589
  Beta virt. eigenvalues --    4.64316   4.66092   4.70408   4.73016   4.77088
  Beta virt. eigenvalues --    4.78239   4.78573   4.79867   4.86124   4.88082
  Beta virt. eigenvalues --    4.92703   4.95062   4.96326   4.96747   4.98575
  Beta virt. eigenvalues --    5.07570   5.09507   5.12573   5.13081   5.15789
  Beta virt. eigenvalues --    5.17455   5.18430   5.21819   5.23627   5.24737
  Beta virt. eigenvalues --    5.26110   5.30456   5.32921   5.36766   5.46713
  Beta virt. eigenvalues --    5.47267   5.50422   5.51422   5.53356   5.55537
  Beta virt. eigenvalues --    5.58100   5.64495   5.67656   5.71137   5.72782
  Beta virt. eigenvalues --    5.73828   5.75652   5.81630   5.84709   5.88172
  Beta virt. eigenvalues --    5.89671   6.02962   6.11861   6.14633   6.41107
  Beta virt. eigenvalues --    6.52771   6.63130   6.83504   6.88082   6.94208
  Beta virt. eigenvalues --    7.06335   7.12543   7.24664   7.29631   7.36136
  Beta virt. eigenvalues --    7.46823   7.67021   7.70185   7.98781  23.92206
  Beta virt. eigenvalues --   24.20075  24.51414  24.58548  24.62671  24.65742
  Beta virt. eigenvalues --   24.67264  24.76065  24.80533  25.07580  25.21806
  Beta virt. eigenvalues --   49.98766  50.06241
          Condensed to atoms (all electrons):
               1          2          3          4          5          6
     1  C    7.085060   0.323631   0.051740   0.363207  -0.222096  -0.029767
     2  C    0.323631   6.315985  -0.476002   0.021082   1.372946  -0.000809
     3  C    0.051740  -0.476002   7.652387  -0.047311  -0.868118   0.320971
     4  H    0.363207   0.021082  -0.047311   0.481204   0.035058  -0.006470
     5  C   -0.222096   1.372946  -0.868118   0.035058  16.441468   0.014862
     6  H   -0.029767  -0.000809   0.320971  -0.006470   0.014862   0.480506
     7  C   -0.654379   0.614587   0.638440   0.007563  -2.131096  -0.022906
     8  H    0.025868   0.352372   0.025723  -0.006677  -0.036305  -0.000112
     9  C   -0.121261  -0.818888   0.214804  -0.003571  -1.000088  -0.014216
    10  H    0.006214  -0.004852  -0.005672  -0.000115  -0.052637   0.000040
    11  C   -0.238340  -0.259197  -0.280639  -0.001429  -0.636626   0.028398
    12  C   -0.015782  -0.798618  -0.068908   0.005736  -6.204199   0.000572
    13  C   -0.292115  -0.016299  -1.150164  -0.001021  -3.556749   0.020889
    14  C    0.203177  -0.254312   0.391109  -0.001257   2.363673   0.001590
    15  H    0.001736   0.008338   0.008117  -0.000003   0.013325   0.000014
    16  H   -0.000360  -0.001073  -0.007150  -0.000001  -0.004110  -0.000017
    17  H   -0.001092   0.000804  -0.000323   0.000000  -0.056772  -0.000002
    18  C   -0.057686  -0.003393  -0.292455   0.001867  -0.012312   0.043203
    19  H    0.008931  -0.000579   0.018008   0.000017   0.005772  -0.003655
    20  H    0.004795   0.000143   0.001033   0.000018  -0.007388  -0.002913
    21  H   -0.010379  -0.001639  -0.061766  -0.000004  -0.047274   0.000963
    22  O   -0.000314   0.000361   0.025314   0.000001   0.026406  -0.000221
    23  O    0.001415   0.000097   0.012635  -0.000000   0.014195   0.000012
    24  H    0.000203   0.000052   0.001958   0.000000  -0.000283  -0.000002
               7          8          9         10         11         12
     1  C   -0.654379   0.025868  -0.121261   0.006214  -0.238340  -0.015782
     2  C    0.614587   0.352372  -0.818888  -0.004852  -0.259197  -0.798618
     3  C    0.638440   0.025723   0.214804  -0.005672  -0.280639  -0.068908
     4  H    0.007563  -0.006677  -0.003571  -0.000115  -0.001429   0.005736
     5  C   -2.131096  -0.036305  -1.000088  -0.052637  -0.636626  -6.204199
     6  H   -0.022906  -0.000112  -0.014216   0.000040   0.028398   0.000572
     7  C    7.174351  -0.044208  -0.460792   0.443919  -0.291041   0.800041
     8  H   -0.044208   0.483961   0.034749  -0.006515   0.006290   0.014158
     9  C   -0.460792   0.034749   9.785604  -0.115845   0.179519  -1.286401
    10  H    0.443919  -0.006515  -0.115845   0.483990  -0.008327   0.082830
    11  C   -0.291041   0.006290   0.179519  -0.008327   9.113107   1.309186
    12  C    0.800041   0.014158  -1.286401   0.082830   1.309186  11.910674
    13  C    0.217358   0.000545   0.916990   0.011580  -0.126629   0.832039
    14  C   -0.366500  -0.001280  -0.573343   0.011186  -2.088788  -1.020436
    15  H    0.054265  -0.000015  -0.055591   0.002389  -0.033591   0.341327
    16  H    0.005741   0.000000  -0.007765  -0.000003  -0.137753   0.030102
    17  H    0.007786  -0.000000   0.014200  -0.000009   0.031992   0.027679
    18  C    0.000774   0.000150  -0.787103  -0.001534  -0.907962   0.091888
    19  H   -0.000253   0.000000  -0.009626  -0.000001  -0.068819  -0.002841
    20  H   -0.003004  -0.000000   0.001518  -0.000001  -0.021216   0.003039
    21  H    0.005359   0.000000   0.034884   0.000000  -0.067202   0.026482
    22  O   -0.001125   0.000000  -0.001423   0.000000   0.117855  -0.012861
    23  O   -0.001217  -0.000000  -0.010166  -0.000000   0.014797  -0.007238
    24  H   -0.000050  -0.000000  -0.000447  -0.000000   0.023376   0.000128
              13         14         15         16         17         18
     1  C   -0.292115   0.203177   0.001736  -0.000360  -0.001092  -0.057686
     2  C   -0.016299  -0.254312   0.008338  -0.001073   0.000804  -0.003393
     3  C   -1.150164   0.391109   0.008117  -0.007150  -0.000323  -0.292455
     4  H   -0.001021  -0.001257  -0.000003  -0.000001   0.000000   0.001867
     5  C   -3.556749   2.363673   0.013325  -0.004110  -0.056772  -0.012312
     6  H    0.020889   0.001590   0.000014  -0.000017  -0.000002   0.043203
     7  C    0.217358  -0.366500   0.054265   0.005741   0.007786   0.000774
     8  H    0.000545  -0.001280  -0.000015   0.000000  -0.000000   0.000150
     9  C    0.916990  -0.573343  -0.055591  -0.007765   0.014200  -0.787103
    10  H    0.011580   0.011186   0.002389  -0.000003  -0.000009  -0.001534
    11  C   -0.126629  -2.088788  -0.033591  -0.137753   0.031992  -0.907962
    12  C    0.832039  -1.020436   0.341327   0.030102   0.027679   0.091888
    13  C   11.892877  -2.647116  -0.001229   0.401648   0.063752  -0.189649
    14  C   -2.647116   9.902768   0.031891   0.058661   0.286621   0.261617
    15  H   -0.001229   0.031891   0.482795  -0.000122  -0.007112  -0.001401
    16  H    0.401648   0.058661  -0.000122   0.459846  -0.006340   0.023355
    17  H    0.063752   0.286621  -0.007112  -0.006340   0.481671   0.003496
    18  C   -0.189649   0.261617  -0.001401   0.023355   0.003496   7.922889
    19  H   -0.013283   0.013017  -0.000001   0.000396   0.000004   0.400784
    20  H   -0.017078  -0.015890  -0.000002  -0.000271   0.000013   0.407921
    21  H    0.162729   0.009962   0.000005   0.015361  -0.000178   0.026111
    22  O   -0.131177  -0.002104  -0.000002  -0.005977   0.000142  -0.147355
    23  O   -0.022735  -0.019923  -0.000001  -0.006123   0.000056   0.100266
    24  H   -0.016570   0.003741   0.000000   0.000245  -0.000001  -0.014252
              19         20         21         22         23         24
     1  C    0.008931   0.004795  -0.010379  -0.000314   0.001415   0.000203
     2  C   -0.000579   0.000143  -0.001639   0.000361   0.000097   0.000052
     3  C    0.018008   0.001033  -0.061766   0.025314   0.012635   0.001958
     4  H    0.000017   0.000018  -0.000004   0.000001  -0.000000   0.000000
     5  C    0.005772  -0.007388  -0.047274   0.026406   0.014195  -0.000283
     6  H   -0.003655  -0.002913   0.000963  -0.000221   0.000012  -0.000002
     7  C   -0.000253  -0.003004   0.005359  -0.001125  -0.001217  -0.000050
     8  H    0.000000  -0.000000   0.000000   0.000000  -0.000000  -0.000000
     9  C   -0.009626   0.001518   0.034884  -0.001423  -0.010166  -0.000447
    10  H   -0.000001  -0.000001   0.000000   0.000000  -0.000000  -0.000000
    11  C   -0.068819  -0.021216  -0.067202   0.117855   0.014797   0.023376
    12  C   -0.002841   0.003039   0.026482  -0.012861  -0.007238   0.000128
    13  C   -0.013283  -0.017078   0.162729  -0.131177  -0.022735  -0.016570
    14  C    0.013017  -0.015890   0.009962  -0.002104  -0.019923   0.003741
    15  H   -0.000001  -0.000002   0.000005  -0.000002  -0.000001   0.000000
    16  H    0.000396  -0.000271   0.015361  -0.005977  -0.006123   0.000245
    17  H    0.000004   0.000013  -0.000178   0.000142   0.000056  -0.000001
    18  C    0.400784   0.407921   0.026111  -0.147355   0.100266  -0.014252
    19  H    0.529442  -0.044882  -0.012852   0.003402  -0.004598   0.001048
    20  H   -0.044882   0.502360  -0.010793   0.003017   0.001901  -0.000127
    21  H   -0.012852  -0.010793   0.453415   0.073145  -0.070845   0.006030
    22  O    0.003402   0.003017   0.073145   8.251627   0.101049  -0.039604
    23  O   -0.004598   0.001901  -0.070845   0.101049   7.902973   0.220988
    24  H    0.001048  -0.000127   0.006030  -0.039604   0.220988   0.545440
          Atomic-Atomic Spin Densities.
               1          2          3          4          5          6
     1  C    0.045709  -0.020327  -0.056034   0.000514  -0.011972  -0.002402
     2  C   -0.020327   0.008540   0.026807  -0.000026   0.022155   0.000408
     3  C   -0.056034   0.026807   0.096286  -0.001134   0.058537   0.007009
     4  H    0.000514  -0.000026  -0.001134  -0.000208  -0.000374   0.000158
     5  C   -0.011972   0.022155   0.058537  -0.000374   0.186090   0.004756
     6  H   -0.002402   0.000408   0.007009   0.000158   0.004756  -0.007334
     7  C   -0.006801  -0.003220   0.018009   0.000076   0.026476   0.000251
     8  H   -0.000243   0.000102  -0.000016  -0.000007   0.000181   0.000001
     9  C    0.006900  -0.001891  -0.003474   0.000284   0.005066   0.000263
    10  H    0.000242  -0.000170  -0.000475   0.000002  -0.001933  -0.000000
    11  C    0.025057  -0.008182  -0.023799   0.000236   0.068780  -0.000505
    12  C    0.011987  -0.010496  -0.012036   0.000095  -0.025964  -0.000643
    13  C    0.014325  -0.008783  -0.046055   0.000085  -0.192442  -0.002426
    14  C   -0.001155   0.003614   0.013592  -0.000009   0.025845   0.000047
    15  H   -0.000079   0.000101  -0.000094   0.000000  -0.000856  -0.000000
    16  H    0.000019  -0.000015   0.000029   0.000000  -0.000829  -0.000000
    17  H   -0.000020   0.000002  -0.000070   0.000000  -0.000460   0.000000
    18  C   -0.007697  -0.010203  -0.069306   0.000230  -0.153675  -0.008305
    19  H   -0.001095  -0.000044  -0.005858  -0.000000  -0.006575   0.000420
    20  H   -0.003130  -0.000272  -0.011137   0.000000  -0.009147   0.000309
    21  H    0.002476  -0.000164   0.007747   0.000000  -0.000861  -0.000123
    22  O   -0.003365  -0.000079  -0.015772   0.000000  -0.013826  -0.000019
    23  O    0.000292   0.000022   0.002289  -0.000000   0.004779   0.000008
    24  H   -0.000013  -0.000001  -0.000111   0.000000  -0.000144  -0.000000
               7          8          9         10         11         12
     1  C   -0.006801  -0.000243   0.006900   0.000242   0.025057   0.011987
     2  C   -0.003220   0.000102  -0.001891  -0.000170  -0.008182  -0.010496
     3  C    0.018009  -0.000016  -0.003474  -0.000475  -0.023799  -0.012036
     4  H    0.000076  -0.000007   0.000284   0.000002   0.000236   0.000095
     5  C    0.026476   0.000181   0.005066  -0.001933   0.068780  -0.025964
     6  H    0.000251   0.000001   0.000263  -0.000000  -0.000505  -0.000643
     7  C   -0.004930   0.000075  -0.007448   0.000803  -0.006987  -0.020598
     8  H    0.000075   0.000153  -0.000006  -0.000002  -0.000043  -0.000073
     9  C   -0.007448  -0.000006   0.014098  -0.001007   0.016236  -0.012855
    10  H    0.000803  -0.000002  -0.001007   0.000270   0.000545   0.001623
    11  C   -0.006987  -0.000043   0.016236   0.000545   0.142151   0.005387
    12  C   -0.020598  -0.000073  -0.012855   0.001623   0.005387   0.027955
    13  C   -0.011353  -0.000023  -0.003319   0.000562  -0.128735   0.012269
    14  C    0.011315   0.000013  -0.012862  -0.000357   0.000895  -0.003327
    15  H    0.000654   0.000000  -0.000379   0.000003  -0.000309   0.000147
    16  H   -0.000004   0.000000  -0.000264   0.000000   0.000839   0.000440
    17  H    0.000018  -0.000000   0.000220   0.000001  -0.000610  -0.000787
    18  C    0.005339  -0.000003  -0.000837   0.000121  -0.139744   0.032650
    19  H    0.000064  -0.000000   0.003177   0.000000   0.000308   0.000729
    20  H    0.000588  -0.000000   0.004830   0.000000  -0.003621   0.000439
    21  H   -0.000961  -0.000000  -0.006975   0.000000   0.000556   0.000426
    22  O    0.001092  -0.000000   0.010510   0.000000  -0.029094  -0.001879
    23  O   -0.000112   0.000000  -0.001773  -0.000000   0.013399   0.000762
    24  H    0.000002  -0.000000   0.000056   0.000000  -0.000541  -0.000013
              13         14         15         16         17         18
     1  C    0.014325  -0.001155  -0.000079   0.000019  -0.000020  -0.007697
     2  C   -0.008783   0.003614   0.000101  -0.000015   0.000002  -0.010203
     3  C   -0.046055   0.013592  -0.000094   0.000029  -0.000070  -0.069306
     4  H    0.000085  -0.000009   0.000000   0.000000   0.000000   0.000230
     5  C   -0.192442   0.025845  -0.000856  -0.000829  -0.000460  -0.153675
     6  H   -0.002426   0.000047  -0.000000  -0.000000   0.000000  -0.008305
     7  C   -0.011353   0.011315   0.000654  -0.000004   0.000018   0.005339
     8  H   -0.000023   0.000013   0.000000   0.000000  -0.000000  -0.000003
     9  C   -0.003319  -0.012862  -0.000379  -0.000264   0.000220  -0.000837
    10  H    0.000562  -0.000357   0.000003   0.000000   0.000001   0.000121
    11  C   -0.128735   0.000895  -0.000309   0.000839  -0.000610  -0.139744
    12  C    0.012269  -0.003327   0.000147   0.000440  -0.000787   0.032650
    13  C    0.294426  -0.065218   0.000597   0.001607   0.002171   0.124733
    14  C   -0.065218   0.030753   0.000184  -0.001665  -0.000291  -0.001179
    15  H    0.000597   0.000184  -0.000085  -0.000000   0.000026   0.000034
    16  H    0.001607  -0.001665  -0.000000  -0.000011   0.000040  -0.001164
    17  H    0.002171  -0.000291   0.000026   0.000040  -0.000044  -0.000076
    18  C    0.124733  -0.001179   0.000034  -0.001164  -0.000076   1.153744
    19  H    0.010879  -0.001748   0.000000  -0.000021   0.000000  -0.009182
    20  H    0.019154  -0.000730   0.000000   0.000013   0.000000  -0.007878
    21  H   -0.012221   0.003278  -0.000000   0.000157  -0.000001   0.015617
    22  O    0.060728  -0.005444   0.000002   0.000765   0.000018  -0.232360
    23  O   -0.018754   0.001410  -0.000001  -0.000290  -0.000011   0.048536
    24  H    0.000741  -0.000187   0.000000   0.000013   0.000000  -0.002246
              19         20         21         22         23         24
     1  C   -0.001095  -0.003130   0.002476  -0.003365   0.000292  -0.000013
     2  C   -0.000044  -0.000272  -0.000164  -0.000079   0.000022  -0.000001
     3  C   -0.005858  -0.011137   0.007747  -0.015772   0.002289  -0.000111
     4  H   -0.000000   0.000000   0.000000   0.000000  -0.000000   0.000000
     5  C   -0.006575  -0.009147  -0.000861  -0.013826   0.004779  -0.000144
     6  H    0.000420   0.000309  -0.000123  -0.000019   0.000008  -0.000000
     7  C    0.000064   0.000588  -0.000961   0.001092  -0.000112   0.000002
     8  H   -0.000000  -0.000000  -0.000000  -0.000000   0.000000  -0.000000
     9  C    0.003177   0.004830  -0.006975   0.010510  -0.001773   0.000056
    10  H    0.000000   0.000000   0.000000   0.000000  -0.000000   0.000000
    11  C    0.000308  -0.003621   0.000556  -0.029094   0.013399  -0.000541
    12  C    0.000729   0.000439   0.000426  -0.001879   0.000762  -0.000013
    13  C    0.010879   0.019154  -0.012221   0.060728  -0.018754   0.000741
    14  C   -0.001748  -0.000730   0.003278  -0.005444   0.001410  -0.000187
    15  H    0.000000   0.000000  -0.000000   0.000002  -0.000001   0.000000
    16  H   -0.000021   0.000013   0.000157   0.000765  -0.000290   0.000013
    17  H    0.000000   0.000000  -0.000001   0.000018  -0.000011   0.000000
    18  C   -0.009182  -0.007878   0.015617  -0.232360   0.048536  -0.002246
    19  H   -0.032791   0.002000   0.002823   0.004205  -0.000694  -0.000023
    20  H    0.002000  -0.029122   0.002356   0.005299  -0.001114   0.000034
    21  H    0.002823   0.002356  -0.086911   0.051370  -0.003520   0.000156
    22  O    0.004205   0.005299   0.051370   0.574617  -0.073664   0.004699
    23  O   -0.000694  -0.001114  -0.003520  -0.073664   0.094936  -0.001856
    24  H   -0.000023   0.000034   0.000156   0.004699  -0.001856  -0.001388
 Mulliken charges and spin densities:
               1          2
     1  C   -0.432406  -0.006812
     2  C   -0.374738  -0.002122
     3  C   -0.103730  -0.015066
     4  H    0.152105  -0.000078
     5  C    0.548348  -0.016392
     6  H    0.169069  -0.008128
     7  C    0.006388   0.002345
     8  H    0.151293   0.000107
     9  C    0.084257   0.008548
    10  H    0.153364   0.000228
    11  C    0.343040  -0.067781
    12  C   -0.058596   0.006240
    13  C   -0.338594   0.052951
    14  C   -0.548065  -0.003225
    15  H    0.154868  -0.000055
    16  H    0.181709  -0.000340
    17  H    0.153613   0.000126
    18  C   -0.869219   0.737151
    19  H    0.180569  -0.033424
    20  H    0.197805  -0.031127
    21  H    0.468484  -0.024773
    22  O   -0.260156   0.337805
    23  O   -0.227538   0.064644
    24  H    0.268129  -0.000822
 Sum of Mulliken charges =  -0.00000   1.00000
 Mulliken charges and spin densities with hydrogens summed into heavy atoms:
               1          2
     1  C   -0.280301  -0.006889
     2  C   -0.223444  -0.002015
     3  C    0.065339  -0.023194
     5  C    0.548348  -0.016392
     7  C    0.159752   0.002573
     9  C    0.084257   0.008548
    11  C    0.343040  -0.067781
    12  C    0.096272   0.006185
    13  C   -0.156885   0.052610
    14  C   -0.394452  -0.003099
    18  C   -0.490845   0.672600
    22  O    0.208327   0.313031
    23  O    0.040591   0.063822
 Electronic spatial extent (au):  <R**2>=           2919.1941
 Charge=              0.0000 electrons
 Dipole moment (field-independent basis, Debye):
    X=             -0.8381    Y=             -0.9332    Z=              1.2955  Tot=              1.8033
 Quadrupole moment (field-independent basis, Debye-Ang):
   XX=            -71.9873   YY=            -69.0516   ZZ=            -80.2981
   XY=             -2.9208   XZ=              6.3818   YZ=             -1.5650
 Traceless Quadrupole moment (field-independent basis, Debye-Ang):
   XX=              1.7917   YY=              4.7274   ZZ=             -6.5191
   XY=             -2.9208   XZ=              6.3818   YZ=             -1.5650
 Octapole moment (field-independent basis, Debye-Ang**2):
  XXX=             13.4203  YYY=              0.9071  ZZZ=              4.0504  XYY=              5.1544
  XXY=            -15.8244  XXZ=             39.0512  XZZ=             30.2083  YZZ=             -6.2901
  YYZ=              0.9753  XYZ=             -8.3372
 Hexadecapole moment (field-independent basis, Debye-Ang**3):
 XXXX=          -2533.0795 YYYY=           -867.1369 ZZZZ=           -117.4538 XXXY=            -78.7759
 XXXZ=            174.8442 YYYX=              1.3232 YYYZ=             -0.7342 ZZZX=             25.1331
 ZZZY=              0.8594 XXYY=           -575.9354 XXZZ=           -466.7712 YYZZ=           -192.2356
 XXYZ=            -38.8554 YYXZ=              4.3167 ZZXY=            -19.2878
 N-N= 7.276423313620D+02 E-N=-2.798015905806D+03  KE= 5.740292252908D+02
                          Isotropic Fermi Contact Couplings
        Atom                 a.u.       MegaHertz       Gauss      10(-4) cm-1
     1  C(13)              0.00033       0.36652       0.13078       0.12226
     2  C(13)              0.00043       0.48631       0.17353       0.16222
     3  C(13)              0.00502       5.64583       2.01457       1.88324
     4  H(1)               0.00003       0.14066       0.05019       0.04692
     5  C(13)              0.02744      30.84499      11.00626      10.28878
     6  H(1)               0.00018       0.79645       0.28419       0.26567
     7  C(13)              0.00155       1.74760       0.62359       0.58294
     8  H(1)               0.00002       0.07716       0.02753       0.02574
     9  C(13)              0.00331       3.71942       1.32718       1.24067
    10  H(1)               0.00014       0.62905       0.22446       0.20983
    11  C(13)             -0.00390      -4.38391      -1.56429      -1.46232
    12  C(13)              0.00004       0.04393       0.01568       0.01465
    13  C(13)              0.01357      15.25833       5.44455       5.08963
    14  C(13)             -0.00005      -0.05108      -0.01823      -0.01704
    15  H(1)              -0.00002      -0.09179      -0.03275      -0.03062
    16  H(1)              -0.00034      -1.50410      -0.53670      -0.50171
    17  H(1)               0.00007       0.30048       0.10722       0.10023
    18  C(13)              0.31395     352.94227     125.93858     117.72887
    19  H(1)              -0.00665     -29.72218     -10.60561      -9.91425
    20  H(1)              -0.00434     -19.41641      -6.92826      -6.47662
    21  H(1)              -0.02481    -110.87941     -39.56453     -36.98539
    22  O(17)              0.29545    -179.09834     -63.90674     -59.74078
    23  O(17)              0.01296      -7.85591      -2.80318      -2.62045
    24  H(1)              -0.00069      -3.07490      -1.09720      -1.02568
 --------------------------------------------------------
       Center         ----  Spin Dipole Couplings  ----
                      3XX-RR        3YY-RR        3ZZ-RR
 --------------------------------------------------------
     1   Atom        0.002793     -0.001290     -0.001503
     2   Atom        0.002141     -0.000388     -0.001753
     3   Atom        0.008451     -0.001475     -0.006976
     4   Atom        0.001410     -0.000501     -0.000909
     5   Atom        0.034260     -0.017379     -0.016881
     6   Atom        0.006694     -0.000495     -0.006199
     7   Atom        0.003073     -0.001524     -0.001549
     8   Atom        0.000912     -0.000404     -0.000508
     9   Atom        0.004309      0.000588     -0.004898
    10   Atom        0.000902     -0.000235     -0.000667
    11   Atom        0.025116     -0.003247     -0.021870
    12   Atom        0.000250      0.000916     -0.001165
    13   Atom       -0.007869      0.017607     -0.009739
    14   Atom       -0.000309      0.003590     -0.003281
    15   Atom        0.000313      0.000509     -0.000822
    16   Atom       -0.003971      0.011788     -0.007816
    17   Atom       -0.000600      0.001954     -0.001355
    18   Atom        0.581199     -0.216180     -0.365019
    19   Atom       -0.009851     -0.006815      0.016666
    20   Atom       -0.008304     -0.013119      0.021423
    21   Atom        0.400091     -0.191261     -0.208830
    22   Atom        1.238115     -0.788063     -0.450052
    23   Atom        0.459023     -0.193974     -0.265049
    24   Atom        0.004477     -0.008007      0.003531
 --------------------------------------------------------
                        XY            XZ            YZ
 --------------------------------------------------------
     1   Atom        0.000742     -0.000417     -0.000033
     2   Atom       -0.000233     -0.000296      0.000021
     3   Atom       -0.002212     -0.000857      0.000024
     4   Atom        0.000904     -0.000150     -0.000067
     5   Atom       -0.002235     -0.006814      0.000191
     6   Atom        0.004646     -0.000980     -0.000281
     7   Atom       -0.000698     -0.000600      0.000047
     8   Atom       -0.000008     -0.000092      0.000004
     9   Atom       -0.005570     -0.000804      0.000508
    10   Atom       -0.000694     -0.000106      0.000036
    11   Atom       -0.019044     -0.001420      0.000489
    12   Atom       -0.001960      0.000084      0.000499
    13   Atom       -0.006943     -0.000025     -0.002832
    14   Atom       -0.002490     -0.000071      0.000088
    15   Atom       -0.001134     -0.000067      0.000075
    16   Atom       -0.001864      0.000064     -0.000412
    17   Atom       -0.001236     -0.000007      0.000044
    18   Atom        0.382096     -0.007025     -0.003232
    19   Atom        0.017817     -0.006747     -0.044037
    20   Atom        0.018795      0.008038      0.041175
    21   Atom        0.072489     -0.006408      0.000190
    22   Atom       -0.627220     -1.023956      0.305764
    23   Atom        0.142810     -0.047074     -0.108200
    24   Atom        0.001838      0.016416     -0.006532
 --------------------------------------------------------


 ---------------------------------------------------------------------------------
              Anisotropic Spin Dipole Couplings in Principal Axis System
 ---------------------------------------------------------------------------------

       Atom             a.u.   MegaHertz   Gauss  10(-4) cm-1        Axes

              Baa    -0.0016    -0.208    -0.074    -0.070  0.1366 -0.2639  0.9548
     1 C(13)  Bbb    -0.0014    -0.189    -0.067    -0.063 -0.1396  0.9491  0.2823
              Bcc     0.0030     0.398     0.142     0.133  0.9807  0.1719 -0.0928
 
              Baa    -0.0018    -0.238    -0.085    -0.079  0.0751 -0.0026  0.9972
     2 C(13)  Bbb    -0.0004    -0.055    -0.020    -0.018  0.0904  0.9959 -0.0042
              Bcc     0.0022     0.293     0.105     0.098  0.9931 -0.0905 -0.0750
 
              Baa    -0.0070    -0.943    -0.336    -0.314  0.0579  0.0187  0.9981
     3 C(13)  Bbb    -0.0019    -0.260    -0.093    -0.087  0.2057  0.9782 -0.0303
              Bcc     0.0090     1.203     0.429     0.401  0.9769 -0.2070 -0.0528
 
              Baa    -0.0009    -0.491    -0.175    -0.164  0.0143  0.1280  0.9917
     4 H(1)   Bbb    -0.0009    -0.459    -0.164    -0.153 -0.3743  0.9204 -0.1134
              Bcc     0.0018     0.950     0.339     0.317  0.9272  0.3695 -0.0610
 
              Baa    -0.0178    -2.389    -0.853    -0.797  0.1364  0.2909  0.9470
     5 C(13)  Bbb    -0.0174    -2.341    -0.835    -0.781  0.0026  0.9558 -0.2940
              Bcc     0.0352     4.730     1.688     1.578  0.9906 -0.0425 -0.1296
 
              Baa    -0.0063    -3.348    -1.195    -1.117  0.0814 -0.0171  0.9965
     6 H(1)   Bbb    -0.0028    -1.476    -0.527    -0.492 -0.4360  0.8985  0.0510
              Bcc     0.0090     4.823     1.721     1.609  0.8963  0.4386 -0.0657
 
              Baa    -0.0017    -0.224    -0.080    -0.075  0.1901  0.6993  0.6891
     7 C(13)  Bbb    -0.0016    -0.213    -0.076    -0.071 -0.0130 -0.7000  0.7140
              Bcc     0.0033     0.436     0.156     0.146  0.9817 -0.1447 -0.1240
 
              Baa    -0.0005    -0.274    -0.098    -0.091  0.0641 -0.0343  0.9974
     8 H(1)   Bbb    -0.0004    -0.215    -0.077    -0.072  0.0083  0.9994  0.0338
              Bcc     0.0009     0.490     0.175     0.163  0.9979 -0.0061 -0.0643
 
              Baa    -0.0050    -0.667    -0.238    -0.222  0.0794 -0.0116  0.9968
     9 C(13)  Bbb    -0.0034    -0.459    -0.164    -0.153  0.5816  0.8126 -0.0369
              Bcc     0.0084     1.126     0.402     0.376  0.8096 -0.5827 -0.0713
 
              Baa    -0.0007    -0.360    -0.129    -0.120  0.0998  0.0753  0.9922
    10 H(1)   Bbb    -0.0006    -0.300    -0.107    -0.100  0.4191  0.9012 -0.1106
              Bcc     0.0012     0.660     0.235     0.220  0.9024 -0.4269 -0.0583
 
              Baa    -0.0219    -2.941    -1.049    -0.981  0.0333  0.0078  0.9994
    11 C(13)  Bbb    -0.0128    -1.718    -0.613    -0.573  0.4480  0.8938 -0.0219
              Bcc     0.0347     4.659     1.662     1.554  0.8934 -0.4485 -0.0263
 
              Baa    -0.0017    -0.228    -0.081    -0.076 -0.5781 -0.5488  0.6039
    12 C(13)  Bbb    -0.0009    -0.121    -0.043    -0.040  0.5109  0.3337  0.7922
              Bcc     0.0026     0.349     0.124     0.116 -0.6362  0.7665  0.0875
 
              Baa    -0.0106    -1.417    -0.506    -0.473  0.5796  0.2217  0.7841
    13 C(13)  Bbb    -0.0091    -1.218    -0.434    -0.406  0.7776  0.1372 -0.6136
              Bcc     0.0196     2.634     0.940     0.879 -0.2436  0.9654 -0.0929
 
              Baa    -0.0033    -0.441    -0.157    -0.147  0.0186 -0.0061  0.9998
    14 C(13)  Bbb    -0.0015    -0.204    -0.073    -0.068  0.8988  0.4381 -0.0140
              Bcc     0.0048     0.645     0.230     0.215 -0.4379  0.8989  0.0136
 
              Baa    -0.0008    -0.441    -0.157    -0.147  0.0155 -0.0430  0.9990
    15 H(1)   Bbb    -0.0007    -0.388    -0.138    -0.129  0.7374  0.6752  0.0176
              Bcc     0.0016     0.829     0.296     0.276 -0.6753  0.7363  0.0422
 
              Baa    -0.0078    -4.175    -1.490    -1.393 -0.0068  0.0204  0.9998
    16 H(1)   Bbb    -0.0042    -2.235    -0.797    -0.745  0.9932  0.1160  0.0044
              Bcc     0.0120     6.410     2.287     2.138 -0.1159  0.9930 -0.0210
 
              Baa    -0.0014    -0.723    -0.258    -0.241 -0.0323 -0.0254  0.9992
    17 H(1)   Bbb    -0.0011    -0.587    -0.209    -0.196  0.9264  0.3744  0.0394
              Bcc     0.0025     1.310     0.467     0.437 -0.3751  0.9269  0.0114
 
              Baa    -0.3697   -49.616   -17.704   -16.550 -0.3711  0.9251  0.0809
    18 C(13)  Bbb    -0.3650   -48.985   -17.479   -16.340  0.0367 -0.0725  0.9967
              Bcc     0.7348    98.601    35.183    32.890  0.9279  0.3728 -0.0070
 
              Baa    -0.0439   -23.403    -8.351    -7.806 -0.3050  0.7860  0.5378
    19 H(1)   Bbb    -0.0108    -5.750    -2.052    -1.918  0.9196  0.0964  0.3808
              Bcc     0.0546    29.153    10.403     9.725 -0.2474 -0.6107  0.7522
 
              Baa    -0.0443   -23.644    -8.437    -7.887 -0.3220  0.8196 -0.4740
[...]
 0.00003719,0.00001016,0.00000392,0.00018054,-0.00000862,-0.00015169,-0
 .00001681,0.00001928,-0.00001637,0.00772793,0.00076156,0.00240511,0.00
 015151,-0.00000427,0.00005020,0.00631999,0.00025913,0.00319803,0.00453
 498,0.00302480,-0.00184634,0.00246657,-0.00731092,0.00319743,-0.047903
 40,-0.03565918,0.02596803,-0.00419138,-0.00008819,-0.00135860,-0.00343
 551,0.00019248,-0.00109710,0.03622429,0.00005829,0.00001867,-0.0002153
 5,0.00003893,-0.00048236,-0.00017682,-0.00002795,0.00016293,0.00013415
 ,-0.00000462,-0.00001350,0.00001282,0.00016499,0.00011205,-0.00056672,
 -0.00000702,-0.00002427,0.00002278,-0.00031232,-0.00046057,0.00108259,
 -0.00002114,-0.00010841,0.00007062,0.00090950,-0.00261755,-0.00385857,
 0.00001020,-0.00001823,-0.00004467,0.00029561,0.00156762,-0.00142566,-
 0.00442349,-0.01830339,0.01554841,0.00044765,0.00453446,-0.00177803,-0
 .03604191,-0.26467774,0.11461571,0.00014316,0.00091889,-0.00015278,-0.
 00001968,0.00055146,0.00026346,0.03880573,0.27886472,0.00007724,-0.000
 01652,-0.00019430,-0.00018400,-0.00030355,0.00001741,-0.00022951,0.000
 18740,0.00008317,0.00002657,0.00001036,0.00001510,-0.00006582,-0.00051
 499,-0.00041545,0.00000450,-0.00005283,0.00001701,-0.00015548,-0.00018
 369,0.00061103,-0.00001451,-0.00007003,0.00003959,0.00233404,-0.003336
 21,-0.00074395,0.00004602,0.00000128,-0.00001035,0.00310818,-0.0018107
 0,-0.00493799,-0.00218506,-0.01428878,0.01224059,0.00377563,0.02738103
 ,-0.00959440,0.02569791,0.11515515,-0.12476645,-0.00127999,0.00051431,
 0.00028274,-0.00119364,-0.00035494,0.00074203,-0.02983869,-0.12382641,
 0.12695026,-0.00082310,0.00197851,0.00309477,0.00040707,0.00143185,-0.
 00251295,-0.00061939,-0.00478886,0.00042078,0.00012971,0.00000701,0.00
 009140,0.00400898,0.01108832,0.00791763,-0.00021587,-0.00013534,0.0000
 8278,0.00001207,-0.00244897,-0.00002691,0.00000089,0.00001535,-0.00002
 583,0.00332336,0.00357750,-0.00213000,0.00011179,-0.00001994,0.0000476
 2,-0.05734738,0.00383102,0.04469030,-0.00156301,0.00137222,0.00298669,
 0.00157016,-0.01240653,0.02016749,0.00552262,-0.00442462,-0.00591511,-
 0.00043151,0.00003444,-0.00012543,-0.00238981,0.00049723,-0.00054708,0
 .00003865,-0.00001968,0.00001839,0.11180297,0.00015634,0.00096666,-0.0
 0043099,0.00014208,-0.00041208,-0.00059263,0.00046763,-0.00104618,-0.0
 0219245,-0.00001872,-0.00008916,0.00002915,0.00748872,-0.00110239,-0.0
 3384147,0.00007022,-0.00044060,-0.00063154,0.00041332,0.00021307,-0.00
 136971,-0.00001281,0.00001185,0.00002041,-0.00033790,-0.00690080,0.000
 49036,0.00007748,-0.00045990,-0.00028196,0.00098770,-0.10880545,-0.013
 52325,0.00017078,-0.00060871,-0.00059148,-0.00762891,0.00618420,0.0322
 9063,-0.00095000,-0.00514393,0.00319731,0.00001554,0.00024776,-0.00002
 805,-0.00056930,0.00050803,0.00183943,-0.00044814,0.00006791,0.0014719
 6,0.02977788,0.65293465,0.00353406,-0.00911517,-0.01382099,-0.00315403
 ,-0.00642368,0.01100519,0.00083265,0.02153252,-0.00295638,0.00008563,-
 0.00010033,-0.00021279,0.00655307,-0.05136734,-0.03424622,0.00006872,0
 .00076204,-0.00045780,0.00027581,0.01102089,0.00021989,-0.00004135,-0.
 00012626,0.00009486,-0.00292395,-0.01685824,0.01300127,0.00008148,0.00
 004401,-0.00009941,0.04507476,-0.03149475,-0.24851667,0.00398471,-0.00
 646262,-0.01642772,0.02450192,0.05780524,-0.08142231,-0.00685541,0.018
 68427,0.03346905,-0.00025496,-0.00012039,0.00003261,-0.00140491,-0.001
 76344,-0.00009185,-0.00002937,0.00021309,0.00019765,-0.11481248,-0.013
 93187,0.60275057,0.00017528,0.00001265,-0.00012328,0.00001235,-0.00004
 935,0.00005326,-0.00033092,-0.00005507,0.00007315,0.00002787,0.0000043
 8,0.00001074,0.00554196,-0.00039636,0.00218560,-0.00019459,0.00013021,
 -0.00013746,-0.00033000,0.00004669,-0.00006707,-0.00001258,0.00000187,
 -0.00001608,0.00023246,0.00013131,0.00006922,-0.00004702,0.00001722,-0
 .00000567,0.00253676,0.00498552,0.00301792,0.00012661,-0.00007752,0.00
 002954,-0.00376878,0.00043747,-0.00129517,-0.00003263,0.00011400,0.000
 10593,-0.00000077,-0.00001008,-0.00000653,0.00010099,-0.00004434,0.000
 15715,0.00014896,-0.00000377,0.00003694,-0.02428176,0.01187981,0.01311
 206,0.02485062,-0.00003022,0.00029419,0.00002384,0.00007624,0.00007445
 ,-0.00025646,-0.00008824,-0.00052540,0.00034352,-0.00000848,-0.0000172
 7,0.00000346,-0.00049015,0.00154576,0.00063401,0.00011362,0.00041913,-
 0.00021093,0.00005139,-0.00019604,-0.00012434,0.00001335,-0.00000302,-
 0.00003995,-0.00002979,0.00005016,-0.00004498,0.00000766,-0.00001184,-
 0.00002032,0.00028268,0.00025725,-0.00164036,-0.00011148,0.00020660,0.
 00048586,-0.00050508,-0.00027232,0.00311948,0.00022836,-0.00000843,-0.
 00090591,0.00000955,0.00002275,-0.00002832,-0.00006172,0.00062417,-0.0
 0020886,-0.00000820,-0.00000596,-0.00007145,0.01208011,-0.28789955,-0.
 10673992,-0.01171828,0.29922410,0.00001610,-0.00039133,0.00009800,-0.0
 0006256,-0.00004831,0.00021788,0.00011624,0.00116082,-0.00045565,0.000
 01161,-0.00004986,-0.00002918,0.00221297,0.00181967,-0.00441296,-0.000
 16665,-0.00020735,0.00031858,0.00007683,0.00041955,-0.00045187,-0.0000
 1773,-0.00001721,0.00003459,0.00002093,-0.00190750,-0.00010217,0.00001
 379,-0.00014431,-0.00008002,0.00145669,-0.02852081,-0.00788020,0.00003
 277,-0.00014711,-0.00004998,-0.00088274,-0.00134009,0.00016372,-0.0000
 8587,0.00060619,0.00047922,-0.00000547,0.00008041,-0.00000128,0.000240
 94,0.00082552,-0.00054202,0.00003796,0.00000481,-0.00001003,0.01372559
 ,-0.10334493,-0.10490308,-0.01529422,0.11663911,0.10630176,-0.00037829
 ,0.00016267,-0.00010362,0.00013081,0.00003019,-0.00006679,-0.00007996,
 -0.00012642,0.00015746,-0.00002350,0.00000267,-0.00000201,-0.00310048,
 -0.00002864,-0.00095305,0.00132117,0.00002575,0.00025209,0.00007557,-0
 .00009418,-0.00000342,0.00006795,0.00000126,0.00000228,-0.00027173,0.0
 0010274,-0.00004401,-0.00000596,0.00000241,-0.00000037,0.00332196,-0.0
 0503242,0.00177606,0.00003350,0.00007914,0.00011992,0.00553421,0.00019
 969,0.00262207,0.00005324,-0.00045169,-0.00023253,0.00009604,0.0000082
 9,0.00002386,-0.00012283,-0.00006321,-0.00008053,-0.00048240,0.0000144
 3,-0.00004785,-0.03284308,-0.03666368,0.03369351,0.00347771,0.00186569
 ,-0.00103118,0.02308550,0.00011024,-0.00004970,-0.00041815,-0.00002993
 ,-0.00016072,0.00014458,0.00019544,-0.00134787,-0.00121376,-0.00001123
 ,-0.00001035,-0.00001134,0.00008532,-0.00153464,0.00063200,0.00021408,
 -0.00372685,-0.00339002,-0.00003555,0.00011602,0.00012313,0.00000282,0
 .00000066,-0.00000912,-0.00008340,-0.00004078,0.00032580,-0.00000235,0
 .00002564,0.00001306,0.00028577,0.00711499,-0.00018672,0.00006621,-0.0
 0002453,-0.00026005,0.00012100,0.00075310,-0.00155222,-0.00007345,0.00
 057843,0.00032143,-0.00001325,0.00000846,0.00002464,0.00003414,0.00038
 324,-0.00021080,0.00004197,0.00001795,-0.00005784,-0.03751303,-0.24640
 055,0.13371920,-0.00431806,-0.01411959,0.01508118,0.04050765,0.2589132
 5,-0.00018518,-0.00033311,0.00041976,-0.00001609,0.00001281,0.00011677
 ,0.00026096,-0.00008683,-0.00092135,0.00000009,-0.00000249,-0.00001456
 ,-0.00097844,0.00083326,0.00089183,0.00026160,-0.00214462,0.00002765,-
 0.00002917,0.00011504,0.00017412,-0.00000837,-0.00000501,0.00007398,-0
 .00004517,-0.00013094,-0.00003695,-0.00000398,-0.00000512,-0.00000021,
 0.00342747,0.02514361,-0.00810805,0.00001629,0.00006800,0.00001450,0.0
 0237168,-0.00239741,-0.00452258,0.00004390,0.00170361,-0.00014501,0.00
 001690,-0.00005358,0.00000207,-0.00004613,0.00018026,0.00000973,0.0000
 2862,-0.00005057,-0.00046698,0.03339526,0.13198459,-0.15517407,-0.0023
 3070,-0.01109289,0.00996122,-0.03640694,-0.14345129,0.15756345,0.00003
 630,-0.00000354,-0.00030822,-0.00006310,-0.00009997,0.00021491,-0.0000
 9727,0.00048764,0.00011522,0.00002808,0.00004607,0.00000324,-0.0002662
 8,-0.00048659,0.00044286,0.00008700,-0.00010085,0.00000935,0.00000187,
 0.00031267,-0.00005260,0.00000931,0.00003411,0.00002655,-0.00008200,-0
 .00016137,0.00008145,0.00000840,0.00001252,0.00004000,-0.00042797,0.00
 003228,-0.00159791,-0.00019101,-0.00028139,0.00055521,0.00022055,-0.00
 005902,-0.00048131,-0.00030204,0.00055480,0.00040813,0.00003487,0.0000
 3683,0.00001980,0.00029300,0.00022205,-0.00010235,0.00003468,-0.000072
 03,0.00014821,0.00034176,-0.00314068,-0.00100744,-0.00835868,0.0008575
 5,0.00045760,0.00051658,0.00106324,0.00081806,0.30931295,0.00013602,-0
 .00011686,-0.00035666,-0.00007686,-0.00019453,0.00022163,-0.00001828,0
 .00045836,0.00000467,0.00000408,0.00001124,-0.00000794,-0.00001584,-0.
 00064428,-0.00017524,-0.00004942,-0.00002669,-0.00001178,0.00000152,0.
 00034836,-0.00006690,-0.00000263,0.00002197,0.00001812,-0.00001259,-0.
 00043851,0.00008435,0.00000584,-0.00000479,0.00001509,-0.00015846,-0.0
 0139202,-0.00144379,-0.00007868,-0.00036963,0.00021924,-0.00018521,0.0
 0133552,-0.00092049,-0.00030921,0.00025283,0.00061675,0.00003872,-0.00
 002733,-0.00002388,0.00065262,-0.00054730,0.00061178,-0.00000348,-0.00
 004222,0.00010688,0.00172972,0.00065928,0.00234870,-0.00153232,0.00100
 780,-0.00063323,-0.00062759,-0.00067206,-0.00033651,0.18492807,0.19370
 940,0.00003316,-0.00015154,-0.00036265,-0.00007836,-0.00006738,0.00031
 810,-0.00005424,0.00058227,0.00015742,0.00000926,0.00004040,0.00000048
 ,0.00035576,-0.00104068,-0.00058885,0.00005768,0.00000096,-0.00000417,
 0.00001265,0.00031815,-0.00009518,0.00000928,0.00001585,0.00001154,-0.
 00004800,-0.00041547,0.00033999,-0.00000553,0.00000580,0.00002159,-0.0
 0111523,-0.00109132,0.00072228,-0.00006174,0.00011932,-0.00013017,0.00
 066286,0.00038033,-0.00108501,0.00000963,0.00048012,0.00019642,-0.0000
 0274,0.00005919,0.00004365,-0.00064333,0.00072216,-0.00036843,-0.00000
 758,-0.00002705,0.00004414,-0.00121709,-0.00023670,-0.00245781,0.00075
 749,-0.00024641,0.00156525,0.00061902,0.00052587,0.00010703,-0.0950069
 1,-0.03415006,0.05705120,-0.00004679,0.00014760,0.00040815,0.00012044,
 0.00008652,-0.00038386,0.00008331,-0.00068493,-0.00011052,-0.00002672,
 -0.00004246,0.00000208,0.00021252,0.00095821,0.00032608,-0.00008719,0.
 00005836,-0.00000350,-0.00002530,-0.00044881,0.00009211,-0.00001810,-0
 .00002545,-0.00002330,0.00009715,0.00041533,-0.00031631,-0.00001525,-0
 .00001013,-0.00004489,-0.00130291,-0.00017641,-0.00043891,0.00031123,-
 0.00016776,-0.00026349,-0.00183880,0.00008219,-0.00026100,0.00014373,-
 0.00069595,-0.00017485,-0.00001176,-0.00007486,-0.00006064,0.00003460,
 -0.00092510,-0.00047330,-0.00013290,0.00007847,-0.00010562,-0.00710187
 ,-0.00299997,-0.00101030,0.00044258,-0.00201222,-0.00059370,-0.0006317
 7,-0.00046003,-0.00040661,-0.27846752,-0.22300868,0.06696675,0.4149723
 4,-0.00006715,0.00009602,0.00017344,0.00005312,0.00012066,-0.00013199,
 0.00000032,-0.00019624,-0.00005300,0.00000285,-0.00000451,0.00000768,0
 .00005880,0.00000204,-0.00014302,-0.00001096,0.00000802,0.00000036,-0.
 00003234,-0.00020849,0.00004984,0.00000216,-0.00001031,-0.00000718,-0.
 00001550,0.00029999,0.00002043,0.00000288,0.00000410,-0.00000194,-0.00
 008837,0.00021555,0.00076925,-0.00006881,0.00026141,-0.00012008,0.0010
 7056,-0.00037867,0.00062241,0.00022366,-0.00032169,-0.00056458,0.00000
 286,0.00002214,0.00003313,-0.00040380,0.00029024,0.00000321,-0.0000011
 1,0.00002379,-0.00008650,-0.00510566,-0.00202454,-0.00163571,0.0001847
 4,-0.00077584,0.00000225,0.00000009,0.00006801,0.00002407,-0.17899818,
 -0.19995035,0.02948246,0.12069259,0.33885587,0.00004222,0.00003939,0.0
 0009540,0.00002304,-0.00005212,-0.00014958,-0.00001576,-0.00018338,-0.
 00016491,-0.00000799,-0.00003247,0.00000012,-0.00008056,0.00020644,0.0
 0017149,-0.00005560,-0.00000772,0.00001384,-0.00002717,-0.00011945,0.0
 0009137,-0.00000827,-0.00001044,-0.00000286,-0.00000502,0.00022694,-0.
 00022867,0.00000893,-0.00000098,-0.00001160,0.00076503,-0.00016663,-0.
 00077177,0.00004082,-0.00039608,0.00004953,-0.00113019,0.00066897,-0.0
 0076477,-0.00009598,-0.00026878,0.00035427,0.00005552,-0.00005859,-0.0
 0002125,0.00028631,-0.00082459,-0.00031994,-0.00003370,0.00000840,0.00
 003507,0.00071190,0.00009864,0.00107833,-0.00044685,0.00006030,-0.0002
 2794,-0.00026266,-0.00019200,-0.00001099,0.08533747,0.05607363,-0.0395
 4726,-0.17840128,0.06607074,0.19471871,0.00004452,-0.00018823,-0.00013
 813,-0.00003787,-0.00013296,0.00014913,0.00004873,0.00029024,-0.000127
 03,-0.00000370,-0.00003103,-0.00000525,-0.00004498,-0.00002952,-0.0001
 0127,0.00001592,0.00005763,0.00000701,-0.00002650,0.00016372,0.0000442
 1,-0.00000271,-0.00002513,-0.00001211,0.00001774,-0.00029188,0.0002404
 5,-0.00000308,-0.00001082,-0.00003883,-0.00109943,0.00055413,0.0013021
 3,0.00027452,0.00003633,-0.00023652,-0.00256546,-0.00020888,-0.0018296
 3,-0.00052148,0.00023033,0.00126398,-0.00003728,-0.00003884,-0.0000582
 9,0.00016149,0.00013852,0.00031310,-0.00000181,0.00004828,-0.00008989,
 0.00095781,0.00092321,-0.00084001,-0.00042722,-0.00033931,-0.00027366,
 0.00013390,-0.00017550,-0.00009278,-0.02304423,0.03705947,0.02374229,-
 0.12334264,0.06013049,0.05775593,0.23797877,-0.00004250,0.00010958,0.0
 0011464,0.00002570,0.00006195,-0.00011552,0.00004244,-0.00005465,-0.00
 001059,0.00001192,-0.00001155,0.00000494,0.00001148,0.00080012,0.00051
 716,0.00004215,0.00001836,-0.00000542,-0.00001984,-0.00009084,-0.00001
 247,0.00000547,-0.00000857,-0.00001048,0.00011257,0.00019959,-0.000003
 13,0.00000924,-0.00001098,-0.00001708,-0.00128018,-0.00008007,-0.00018
 919,0.00017468,-0.00036009,0.00000981,-0.00054095,-0.00058421,0.000224
 35,0.00012011,0.00022322,0.00037986,-0.00001499,-0.00000358,-0.0000237
 8,-0.00016610,-0.00012933,-0.00019204,-0.00008930,0.00005035,-0.000140
 72,-0.00049227,-0.00048691,-0.00114574,0.00027132,0.00012735,0.0001797
 3,0.00010876,0.00010046,0.00002977,-0.00484411,0.00745448,0.00402413,0
 .10923192,-0.13144770,-0.07996062,-0.15818592,0.17043424,0.00000764,-0
 .00007578,-0.00009852,-0.00001306,-0.00009005,0.00009232,0.00007249,0.
 00017236,-0.00005736,-0.00000072,-0.00001371,-0.00000307,-0.00010530,0
 .00001082,0.00004776,-0.00002848,-0.00002062,0.00001424,-0.00007611,0.
 00014502,0.00004907,0.00000218,-0.00000448,0.00000435,0.00004632,-0.00
 020778,0.00011141,0.00001132,0.00000046,-0.00000268,-0.00087669,0.0004
 5726,-0.00031351,0.00017613,0.00009330,0.00024994,-0.00231031,-0.00073
 569,-0.00156485,-0.00061736,0.00020202,0.00084934,-0.00000502,-0.00001
 020,-0.00001934,0.00019948,-0.00010083,-0.00014559,0.00002526,-0.00002
 286,0.00000556,0.00018255,-0.00067375,-0.00037050,-0.00002240,0.000475
 77,0.00013876,-0.00012457,0.00010516,0.00009641,0.00918397,-0.02277835
 ,-0.01440753,0.11605205,-0.09159351,-0.13504299,0.06270302,-0.00187693
 ,0.59540276,-0.00005774,0.00019346,0.00009915,0.00001632,0.00023259,-0
 .00011212,-0.00002912,-0.00010184,0.00021544,0.00000974,0.00004353,0.0
 0000566,-0.00014703,-0.00024075,-0.00002216,0.00001899,-0.00002491,-0.
 00002319,0.00003763,-0.00017637,-0.00016167,0.00001196,0.00003359,0.00
 000966,-0.00001656,0.00031103,-0.00009721,0.00001462,0.00001536,0.0000
 6435,-0.00001113,-0.00069772,0.00053703,-0.00027020,-0.00032925,-0.000
 18414,0.00022907,0.00056483,0.00066415,0.00020522,0.00008630,-0.001229
 10,0.00006609,0.00008443,0.00013414,-0.00018642,0.00037594,0.00012702,
 0.00013037,-0.00006164,0.00011642,-0.00061108,0.00019937,0.00053584,0.
 00011081,-0.00018304,-0.00000625,0.00009185,-0.00001210,-0.00009129,0.
 00037475,0.00152317,0.00500493,-0.00336839,0.00236674,0.03554384,-0.08
 847501,0.05550841,-0.18448240,0.09185527,-0.00002619,0.00002649,0.0000
 6200,0.00000676,0.00001731,-0.00003162,0.00005134,-0.00026372,0.000108
 59,-0.00001012,0.00001833,-0.00000118,-0.00018164,-0.00037632,-0.00003
 378,-0.00001343,-0.00000530,-0.00000533,0.00006874,-0.00012551,-0.0000
 0522,-0.00000702,0.00001046,0.00000197,-0.00009620,-0.00031519,-0.0001
 3295,-0.00001945,0.00001019,0.00000389,0.00020286,0.00029978,-0.001023
 87,-0.00007247,0.00041295,-0.00001585,-0.00039922,0.00018393,0.0005478
 1,0.00004757,-0.00020745,-0.00048398,-0.00000334,-0.00000046,-0.000001
 65,0.00041328,-0.00028365,-0.00024639,0.00018442,-0.00013660,0.0002867
 9,-0.00006626,0.00002736,0.00115552,-0.00001205,-0.00001844,-0.0000672
 0,-0.00002359,0.00000739,-0.00000466,-0.00034009,-0.00083267,0.0006696
 1,-0.00001841,-0.00494952,-0.04117963,0.06002564,-0.04631122,0.1165423
 7,-0.05971114,0.05281186,-0.00004411,0.00014577,0.00016760,0.00004866,
 0.00013036,-0.00019456,-0.00000551,-0.00020489,0.00001244,0.00000572,0
 .00000665,0.,-0.00014132,0.00040653,0.00024337,0.00003123,0.00002601,-
 0.00002782,0.00004273,-0.00025353,-0.00009015,-0.00000046,0.00001078,-
 0.00000835,0.00004507,0.00014623,-0.00009788,-0.00000904,-0.00001525,-
 0.00001008,-0.00012665,-0.00031885,0.00019193,0.00040131,-0.00086063,-
 0.00057938,-0.00038732,0.00051923,0.00093417,0.00038648,0.00035151,-0.
 00004603,-0.00003510,-0.00000224,-0.00002315,0.00033420,-0.00002390,0.
 00029738,-0.00014893,0.00016865,-0.00014146,-0.00022025,0.00024832,-0.
 00069182,0.00013644,-0.00015428,-0.00013258,0.00009326,-0.00006276,-0.
 00005775,0.00069471,0.00058400,-0.00153202,-0.00077517,-0.00292176,-0.
 01934361,-0.14367786,0.07821930,-0.44503599,0.14335189,-0.07614526,0.4
 6616574\\0.00003177,0.00000177,-0.00002404,0.00002020,0.00001197,-0.00
 002851,0.00002095,-0.00002799,-0.00001125,0.00004362,-0.00001211,-0.00
 003236,0.00000296,-0.00001133,-0.00001078,0.00003084,-0.00002115,-0.00
 001437,0.00000263,0.00002308,-0.00002350,0.00003009,0.00001894,-0.0000
 3971,-0.00000674,0.00000930,0.00000856,-0.00000455,0.00003056,-0.00001
 909,-0.00000127,-0.00002387,0.00000135,-0.00002024,0.00003871,-0.00000
 100,-0.00002658,0.00000215,0.00001468,-0.00003097,0.00000384,0.0000313
 1,-0.00002889,0.00003007,0.00000355,-0.00003195,-0.00000993,0.00003215
 ,-0.00004301,0.00002212,0.00002107,0.00000533,-0.00000142,0.00000159,0
 .00697806,0.00066198,0.00012344,0.00001553,-0.00005321,0.00002295,-0.0
 1499349,-0.00659666,0.00223742,0.00803474,0.00588766,-0.00230463,-0.00
 002235,-0.00001686,0.00000734,-0.00000668,0.00003238,0.00000381\\\@


 "THE ACADEMIC HIERARCHY"


 THE PRESIDENT:
   LEAPS TALL BUILDINGS IN A SINGLE BOUND,
     IS MORE POWERFUL THAN A LOCOMOTIVE,
       IS FASTER THAN A SPEEDING BULLET,
         WALKS ON WATER,
           GIVES POLICY TO GOD.

 THE VICE PRESIDENT FOR ACADEMIC AFFAIRS:
   LEAPS SHORT BUILDINGS IN A SINGLE BOUND,
     IS MORE POWERFUL THAN A SWITCH ENGINE,
       IS JUST AS FAST AS A SPEEDING BULLET,
         WALKS ON WATER IF SEA IS CALM,
           TALKS WITH GOD.

 PROFESSOR:
   LEAPS SHORT BUILDINGS WITH A RUNNING START AND FAVORABLE WINDS,
     IS ALMOST AS POWERFUL AS A SWITCH ENGINE,
       CAN FIRE A SPEEDING BULLET,
         WALKS ON WATER IN AN INDOOR SWIMMING POOL,
          TALKS WITH GOD IF SPECIAL REQUEST IS APPROVED.

 ASSOCIATE PROFESSOR:
   BARELY CLEARS A QUONSET HUT,
     LOSES TUG OF WAR WITH LOCOMOTIVE,
       MISFIRES FREQUENTLY,
         SWIMS WELL,
           IS OCCASIONALLY ADDRESSED BY GOD.

 ASSISTANT PROFESSOR:
   MAKES HIGH MARKS ON WALLS WHEN TRYING TO LEAP TALL BUILDINGS,
     IS RUN OVER BY LOCOMOTIVES,
       CAN SOMETIMES HANDLE A GUN WITHOUT INFLICTING SELF INJURY,
         DOG PADDLES,
           TALKS TO ANIMALS.

 GRADUATE STUDENT:
   RUNS INTO BUILDINGS,
     RECOGNIZES LOCOMOTIVES TWO OUT OF THREE TIMES,
       IS NOT ISSUED AMMUNITION,
         CAN STAY AFLOAT WITH A LIFE JACKET,
           TALKS TO WALLS.

 UNDERGRADUATE AND WORK STUDY STUDENT:
   FALLS OVER DOORSTEP WHEN TRYING TO ENTER BUILDINGS,
     SAYS, "LOOK AT THE CHOO-CHOO,"
       WETS HIMSELF WITH A WATER PISTOL,
        PLAYS IN MUD PUDDLES,
          MUMBLES TO HIMSELF.

 DEPARTMENT SECRETARY:
   LIFTS TALL BUILDINGS AND WALKS UNDER THEM,
     KICKS LOCOMOTIVES OFF THE TRACKS,
       CATCHES SPEEDING BULLETS IN HER TEETH AND EATS THEM,
         FREEZES WATER WITH A SINGLE GLANCE,
           IS GOD.
 Job cpu time:       0 days 13 hours 46 minutes 34.0 seconds.
 Elapsed time:       0 days  0 hours 41 minutes 23.1 seconds.
 File lengths (MBytes):  RWF=   1952 Int=      0 D2E=      0 Chk=     64 Scr=     32
 Normal termination of Gaussian 16 at Tue Feb  5 17:28:48 2019.
